<?xml version="1.0"?>
<VTKFile type="UnstructuredGrid"  version="0.1"  >
<UnstructuredGrid>
<Piece  NumberOfPoints="2696" NumberOfCells="14811">
<Points>
<DataArray  type="Float64"  NumberOfComponents="3"  format="ascii">-0.1979385791209487 0.0033709727463301 0.9295263320918322  -0.197835 -0.00622264 0.274557  -0.197814 -0.00186273 0.196017  -0.197796 -0.0035332 0.7114549999999999  -0.197727 0.00191462 0.50284  -0.197703 -0.008740639999999999 0.8566049999999999  -0.197549 -0.0102037 0.7877110000000001  -0.197548 0.0113468 0.66915  -0.197537 -0.00953508 0.55181  -0.19752 -0.00496649 0.107536  -0.197465 0.0115805 0.748795  -0.197382 0.0167696 0.4544  -0.197295 0.0146056 0.314852  -0.197197 -0.009419250000000001 0.389793  -0.197178 -0.018171 0.429727  -0.197178 -0.0107776 0.348287  -0.197118 -0.0194841 0.895669  -0.197001 -0.017375 0.597677  -0.196956 0.0143744 0.821971  -0.196928 0.0205063 0.235106  -0.196802 -0.0193726 0.151544  -0.196444 0.0259048 0.892297  -0.19639 0.0206834 0.626655  -0.1963873158294226 -0.0205981463462331 0.0703801197932763  -0.196247 0.0254349 0.162507  -0.196151 -0.0250107 0.642054  -0.196018 -0.0270119 0.234649  -0.196012 0.0264592 0.581747  -0.195863 0.0291511 0.124242  -0.195572 -0.0295152 0.47423  -0.195487 0.029498 0.362014  -0.1954815850342504 0.0280030082616107 0.070443436824384  -0.195225 0.0313983 0.535552  -0.194931 -0.0332268 0.31197  -0.194706 -0.035849 0.687234  -0.19458 0.0348951 0.408708  -0.193966 -0.0385128 0.739262  -0.193954 0.0389074 0.783938  -0.193947 0.0397657 0.276222  -0.193801 0.0388097 0.703691  -0.193375 -0.0411793 0.521222  -0.192907 0.0443264 0.854917  -0.192883 -0.0423873 0.828442  -0.1928201337669533 -0.0453765658264667 0.9294277046715519  -0.19271 0.0449239 0.48896  -0.192223 -0.0462584 0.192819  -0.192021 0.0477785 0.197104  -0.191947 -0.0467137 0.111653  -0.191548 -0.049242 0.780972  -0.1912088311241861 0.0513301980589333 0.9296259083152576  -0.190726 -0.0523076 0.568147  -0.190693 -0.0525744 0.273948  -0.190651 -0.0511343 0.357124  -0.18966 -0.0556819 0.399121  -0.189534 0.0565247 0.320671  -0.189194 0.0583603 0.657717  -0.189077 0.0586335 0.7427859999999999  -0.189019 -0.0586833 0.878915  -0.187955 -0.0616867 0.61414  -0.187839 0.0626466 0.446518  -0.187834 -0.0624619 0.445112  -0.18783 0.0610886 0.10619  -0.187074 0.0634459 0.611753  -0.186538 -0.0656929 0.15269  -0.186522 0.0664604 0.237395  -0.1862941105868434 -0.0659446445189459 0.0703431987188784  -0.186217 0.0667982 0.564738  -0.186205 0.0652911 0.818258  -0.185825 -0.0682844 0.658985  -0.185052 0.0694689 0.365511  -0.184862 0.07090920000000001 0.152427  -0.184377 0.0722772 0.892311  -0.184342 0.07162060000000001 0.523261  -0.184174 -0.07112209999999999 0.233889  -0.18392 -0.0728483 0.491336  -0.183646 -0.0737172 0.709131  -0.182635051662962 0.075543994090529 0.0705295991617385  -0.182577 -0.0754157 0.320045  -0.180979 0.0800478 0.7007679999999999  -0.18001 0.0820521 0.279576  -0.179509 -0.0825477 0.801126  -0.179364 -0.083429 0.537493  -0.179347 0.0832822 0.406392  -0.178907 0.08457430000000001 0.778914  -0.1783553993070672 -0.085915478612291 0.9293478922383408  -0.178195 -0.08572100000000001 0.756186  -0.177579 -0.087004 0.845381  -0.176608 -0.0893472 0.194167  -0.176575 0.08925900000000001 0.485775  -0.176446 -0.0890339 0.112595  -0.176379 0.0900194 0.194859  -0.1756 0.0910979 0.8542  -0.174662 -0.09314210000000001 0.278902  -0.174278 -0.0935908 0.584152  -0.174203 -0.0933075 0.365173  -0.174164 -0.09382989999999999 0.415226  -0.1728578929710871 0.0963412128064321 0.9297219652638795  -0.172797 0.0960951 0.323087  -0.171322 0.09842430000000001 0.113089  -0.170734 0.100453 0.663209  -0.170582 0.100165 0.58258  -0.169409 0.102154 0.73803  -0.169038 0.102629 0.6251100000000001  -0.169011 -0.103019 0.461309  -0.16868 -0.103463 0.630672  -0.168673 -0.103295 0.888113  -0.167988 -0.104648 0.6754790000000001  -0.167487 0.105466 0.446821  -0.1665932206929432 -0.1066082641898177 0.0703316623379414  -0.1665542269907589 -0.0164565448383893 0.07044578692777489  -0.166345 0.10713 0.237415  -0.166217 -0.107161 0.154277  -0.165419 0.107957 0.533266  -0.164811 0.109199 0.365997  -0.164777 0.109206 0.8154169999999999  -0.164188 -0.110313 0.238368  -0.162943 -0.112058 0.723619  -0.162557 -0.112782 0.506751  -0.162187 0.113412 0.15494  -0.16191 -0.113549 0.321307  -0.161444 0.115003 0.891108  -0.1604420661658044 0.0146273806673605 0.9295574688429359  -0.1602598123396178 0.1160437417507107 0.07062615473235211  -0.160168 -0.116002 0.810227  -0.157829 0.119276 0.280636  -0.1567320568516814 -0.0231895056523025 0.9294809002616296  -0.156702 0.121036 0.696769  -0.156144 -0.121318 0.552073  -0.15412 0.124011 0.407379  -0.154078 -0.124052 0.393249  -0.153624 0.124647 0.775531  -0.1535340523934404 -0.1249814957951267 0.9292733323963596  -0.152801 0.125612 0.491484  -0.152424 -0.125655 0.767989  -0.15228 -0.126676 0.199508  -0.1519092810261558 0.0297418710723635 0.0705338935993978  -0.151447 -0.127174 0.8512690000000001  -0.151237 -0.127409 0.113987  -0.150989 0.128177 0.196602  -0.1509375892736138 -0.0687187491227195 0.9293890034072281  -0.149257 -0.129933 0.5995  -0.148955 -0.130158 0.279123  -0.148306 0.130775 0.567005  -0.148011 -0.130967 0.434067  -0.147649 0.131776 0.8514969999999999  -0.147611 0.131561 0.324852  -0.145153 0.134184 0.113633  -0.144893 -0.134509 0.356616  -0.144625 -0.135033 0.6898339999999999  -0.1445360162843305 0.1355558459026237 0.929808318986533  -0.1439675771195814 -0.0578866854091632 0.0704391260622261  -0.143829 0.135921 0.608905  -0.141204 0.138569 0.73467  -0.140855 0.139042 0.65255  -0.1404540138128386 0.08533074795526741 0.9297064444991761  -0.140318 -0.139466 0.478278  -0.139323 0.140494 0.449838  -0.139283 -0.140526 0.646515  -0.138847 -0.140937 0.161768  -0.138519106987936 -0.1411639404625633 0.0703448129773427  -0.137072 -0.142684 0.889615  -0.137046 0.142736 0.239426  -0.135607 0.143896 0.368263  -0.134005 -0.145792 0.238958  -0.1339720226795165 0.07224646464135979 0.07062399611493619  -0.1335745826921163 0.0415371776853675 0.9296183332850809  -0.133518 0.145631 0.530423  -0.133376 0.146124 0.811813  -0.132374 -0.146909 0.731178  -0.131907 -0.14741 0.808707  -0.131378 -0.147778 0.520023  -0.130632 -0.148372 0.316861  -0.13055 0.148671 0.155848  -0.1291236351064474 0.149981852441302 0.0707321551135347  -0.128863 0.150088 0.282771  -0.128839 0.150425 0.8893180000000001  -0.1267 -0.151848 0.565478  -0.1252854735040017 -0.0120546987785584 0.0705349465728944  -0.125145 0.15343 0.692365  -0.1227563079525674 8.806581514139999e-05 0.9295358702659383  -0.121745 -0.156092 0.400657  -0.121292 0.156359 0.409972  -0.119895 0.157187 0.77139  -0.119781 0.157463 0.491713  -0.1194179600600905 -0.1579446220516861 0.9292132682112676  -0.119175 -0.157758 0.132585  -0.118998055642983 -0.0953143062060107 0.07044235512741991  -0.118602 -0.15823 0.0971812  -0.118513 0.158562 0.198711  -0.117743 -0.159047 0.199249  -0.117435 0.159173 0.57506  -0.116997 -0.159334 0.447823  -0.116428 -0.159921 0.610905  -0.116343 -0.160107 0.848966  -0.1154976985546171 -0.0431281315310715 0.92944902229663  -0.115057 0.160759 0.328625  -0.114545 -0.160994 0.7693719999999999  -0.11357 -0.162151 0.688621  -0.113561 -0.161924 0.277232  -0.112557663801153 0.1094814443801144 0.07071447532788321  -0.11107 -0.163627 0.356871  -0.110864 0.163785 0.114014  -0.110545 0.164207 0.848884  -0.109823 0.164698 0.620289  -0.1086862208438791 -0.08972131216765521 0.9293551685837587  -0.1079732385850296 0.1655127422880804 0.9298775137504505  -0.107589 0.166136 0.728747  -0.1075272980624538 0.0311689630862973 0.07062559600125989  -0.103962 0.168363 0.452237  -0.1032954479124515 0.1164500360075688 0.9297781462474115  -0.100588 -0.170207 0.487655  -0.100376 0.170678 0.663852  -0.1000803470769461 -0.0509416938946247 0.07053680669504871  -0.09955749999999999 0.170964 0.24292  -0.09907050000000001 0.171199 0.369174  -0.0986185 -0.171738 0.889131  -0.09796539999999999 -0.171915 0.649235  -0.09740699999999999 -0.17233 0.161767  -0.097251339426365 0.0707700227100411 0.9296859949020695  -0.0969980047663789 -0.1722367517107466 0.0703896068722651  -0.0964192 0.172853 0.289411  -0.09624489999999999 -0.172797 0.53431  -0.09573902337273139 -0.1350153336170769 0.9292652994320775  -0.0953927 -0.173393 0.23818  -0.09533560000000001 0.172912 0.535989  -0.0944503 0.173781 0.806945  -0.0937847 -0.174175 0.808592  -0.09374059999999999 -0.174154 0.7292689999999999  -0.0925609 -0.174369 0.315747  -0.09220040684773249 0.1382004359802618 0.0707920402755539  -0.09151529999999999 -0.175335 0.5756520000000001  -0.0911936527373562 0.1754460919725641 0.0708411967629735  -0.09107 0.175596 0.155475  -0.0904421499997534 -0.1282641830470459 0.0704585130530814  -0.08933498809653991 0.0270766608672483 0.9295983128945873  -0.08894299788880949 0.071498729144695 0.07071425787430551  -0.0886301 0.177038 0.88652  -0.0871377 -0.17784 0.429652  -0.08344500000000001 0.179543 0.413301  -0.08315400000000001 0.179541 0.19843  -0.0830471 0.179519 0.496354  -0.0816740624328738 -0.0079541711151824 0.0706284701629597  -0.0816156 -0.1803 0.388552  -0.08159420000000001 0.18014 0.761417  -0.0813456 -0.179981 0.114798  -0.080956520777233 -0.0163951742212607 0.929511184027064  -0.0802515 0.180554 0.580158  -0.07814494384415779 -0.1818584686015525 0.9291732655809544  -0.0770161 0.182266 0.7076519999999999  -0.07589079999999999 -0.182673 0.198794  -0.07441399999999999 -0.183474 0.849063  -0.0743859006847417 -0.0870211145563831 0.0705432096461989  -0.0742638 0.183324 0.326269  -0.0733857 -0.183699 0.610829  -0.0730639 -0.183897 0.688674  -0.0729175592668386 -0.0608321012656781 0.9294220072461233  -0.0718623 -0.184119 0.767717  -0.0712889 -0.184493 0.277417  -0.0708470790097338 0.1089174013425698 0.07079824786338459  -0.07060180000000001 0.184722 0.11053  -0.0693175 -0.184934 0.351394  -0.0692815 0.185262 0.625691  -0.067479488723668 0.1424851459384916 0.9298391558448666  -0.06657398812954721 0.1863501123291
[...]
<PointData  Vectors="f_26"> 
<DataArray  type="Float64"  Name="f_26"  NumberOfComponents="3" format="ascii">1.3869903440427796e-08 -4.8073448098192182e-09 -1.9235277422040533e-07  -2.3707580529178382e-09 1.3461016386646472e-08 -2.0311545765387118e-07  -2.2195114050408173e-08 -9.4129626596160145e-09 -2.3699539292511422e-07  -3.5583779381741206e-09 -5.8506820438140962e-09 1.9852951316636468e-07  -1.7349509158865296e-08 -8.7989105084418980e-10 5.3814221676906303e-08  2.4137176519128960e-08 -8.8434081646260657e-09 -9.5598214947745127e-08  -1.6760214125102542e-08 -3.1523538841317735e-08 -5.0702412730989551e-08  -1.9154874693572919e-09 -2.4934114886763450e-09 1.4289853515267056e-07  -1.2371196953532684e-08 1.1558273813933262e-10 5.1762818204730709e-09  -3.5583615801794003e-07 1.7439712234680798e-08 -5.1014118641598032e-07  5.7762003910662228e-09 -1.2599903816645496e-10 3.7228347733064144e-08  5.5901565222355238e-08 -6.7941904998347746e-09 -4.3721250698656020e-08  -2.8617628948418416e-08 -6.3152442081908846e-10 -1.0468124159062931e-07  4.9421805919789012e-08 -1.6314850808512335e-09 -1.1855086766606815e-08  -5.1084926716961383e-08 -1.0660565561513380e-08 -4.9501758172635622e-08  -4.2725172755764402e-08 2.3228375023447326e-09 -1.8138081556283020e-07  1.4298541937717519e-08 -9.2268606206759145e-09 -4.9545459018064627e-08  -2.0852551182186822e-08 -8.5792139780545979e-09 -5.9612793955874520e-08  -1.2696791186816118e-08 6.0943076012989394e-09 -5.4458489624049351e-09  -2.5771330196246339e-08 -1.3439298905825437e-09 -1.8675718012634246e-07  -6.6137982706312142e-08 9.3053485624930849e-09 -4.3502319243822306e-07  7.5337842060741499e-09 1.2022744058824055e-08 -6.3329829125188333e-08  -1.9140308514021097e-08 5.4898285997352888e-09 -1.0817138747814268e-08  2.1386420550982902e-07 -2.3288347926941253e-08 -1.5250113317502863e-02  -8.6858921987194085e-08 -7.6222527608395640e-09 -2.0795975156646569e-07  3.9529777031464742e-08 8.5996218118042738e-09 4.6700717519730015e-09  7.9390198254003266e-09 1.5844349838051011e-08 -2.6141508343984158e-07  1.3460489757551104e-09 4.6923684779432297e-09 7.9288446993243690e-08  -1.6396272467459986e-07 4.7731400900683161e-08 -5.6336477030622600e-07  2.8956154620348541e-08 1.6831886442080234e-08 -3.3578130413650590e-07  3.0955180181582701e-08 -1.2228185767167463e-08 -6.9289513382732778e-09  -7.3262080879644824e-08 1.3310222766508246e-07 -1.5250418334459968e-02  3.0219491157204479e-08 -6.5654765968886314e-10 -5.5746880575034274e-09  -9.3185044736178269e-09 -4.8855025789718183e-09 -1.8435063038961601e-07  -2.3017485416037318e-08 -6.8877455000095301e-09 4.6578208951453841e-08  -3.8213002061282450e-08 7.4144366582301804e-09 -2.6397625859975358e-08  2.5921454109386103e-08 -2.6208174140782865e-09 1.1935326775751645e-07  5.8672363945054205e-08 -2.3059250609553108e-08 -4.5164204727182224e-08  3.6069834272238915e-08 -1.0982907571547981e-08 -3.5502531624500918e-08  -1.1005114653786890e-09 1.7477518264265607e-09 2.3134368924256172e-08  4.2139025763618061e-09 1.5100619179229589e-08 -5.8313388417839426e-08  -5.7708960811393357e-09 3.2330416136117810e-08 1.0551114412217700e-07  4.3671007020088860e-09 -4.3643999097515846e-09 -2.2766794979279923e-07  1.8665688060587011e-09 -2.7435201283861318e-09 -3.8411019155699494e-08  1.3283498100853861e-08 -3.0526664940678076e-08 -9.3169110347022577e-08  -3.7964295176660771e-08 -1.5741669827997523e-08 -1.8376937603324456e-07  2.4695824059980019e-08 -5.3313549886870327e-09 -3.3233278116958604e-07  -3.0931794509804044e-07 -4.9801646941366813e-08 -5.6057087626312242e-07  -1.6446778442497046e-08 -1.2565210616825560e-08 -1.3907267640504126e-07  -2.6052685687496724e-08 3.3672942549607619e-08 -1.9316145745972899e-08  2.3021924074737543e-08 2.9693710673764756e-09 -5.6158020281699718e-10  9.3886753056454990e-09 3.4398939033297632e-11 -1.3196824897811207e-07  1.7711653785054665e-08 2.7094590105003494e-09 6.1321573342404345e-08  -3.1050458425514694e-08 -1.0615342458993789e-08 -9.4013610110417877e-09  -4.0605495835143610e-08 -1.2483304137148904e-08 -3.2025457822658609e-08  -5.3164375007446684e-09 6.2000124258896778e-09 -5.3299929244730399e-08  -2.0880101387705289e-08 -8.6368414811335295e-09 -3.4077770161704792e-08  3.2770709521288215e-08 -1.6943693481835639e-08 -1.6762958408055019e-07  -1.2391285098065893e-08 -1.2756491058936330e-08 4.4807049849467827e-09  -1.9666411936005669e-08 1.0717927173063497e-08 -7.5422258818249664e-08  7.5219154176635655e-08 2.7031406196107367e-08 -1.4067895890130554e-07  -4.0928401655455817e-07 1.4424868663462571e-07 -3.3533783094243040e-07  4.8792743034103713e-09 3.1563395507361355e-09 7.7747676514386438e-09  -7.0877293819973180e-08 -3.7058072924566409e-08 -3.1006939891629585e-07  -1.4383962376601542e-08 -1.0447336253525560e-09 -1.1365350065265855e-07  -3.1123061314450489e-07 -1.0616471942828492e-07 -1.5250434012916182e-02  -1.2860946000208916e-08 -2.8808047415786136e-09 3.0947634924487165e-08  1.3028205820599056e-08 -2.6483001758361770e-08 1.8424595844063983e-07  -3.4933068809812475e-09 6.4871005507834908e-09 5.6035291706917560e-08  -4.0485567284592297e-08 -4.6547917914363945e-08 5.6325138465160207e-08  -7.6194405853814188e-08 3.6477759817054774e-08 -2.8796955639439970e-07  4.4457942437209782e-08 -4.1005579187249830e-09 5.7742950610858026e-08  6.7083262722419000e-09 1.4761971222625217e-08 6.6033787767756000e-08  -1.4541240436600595e-08 5.3277128590171282e-09 -7.7586283013528345e-08  -9.5600544974366600e-09 -2.9394351424094111e-08 -6.3647461904930474e-08  -1.9880671219853435e-08 1.1938640191988739e-09 -1.0825094630743320e-07  -7.4360705012090550e-08 -5.7153571542590528e-09 -1.5250003931301506e-02  6.6154978031390312e-09 -2.2600784590927363e-08 -6.6386683996564847e-08  1.3837075052448513e-08 7.6164061123769039e-09 8.6450764101732206e-08  3.8912893255862559e-09 1.5699249339812056e-08 2.0054221878116604e-08  6.0411850141139491e-09 5.2822003218597853e-09 -2.1420395400380127e-07  -2.0507217673466479e-08 1.1355046299325866e-08 -1.3393393057296980e-07  2.9941469822600504e-08 -1.1306862542894909e-08 4.5582631841711003e-08  -3.5227152542988701e-08 6.7804769059442894e-10 7.0412306829792552e-08  4.3892525886080258e-08 5.9457250742089758e-09 -5.6046876460729145e-08  4.7488037762251644e-09 -4.1648337156769597e-09 -4.9379960557463269e-08  1.5150204299096322e-08 -9.0124993200144061e-09 -1.6809662174143314e-07  -4.3918650442239692e-08 -5.3716300520663820e-09 -2.6248246468401028e-07  -4.0780535467190434e-10 7.5948864689165756e-09 2.8161146433117893e-08  -1.7906499853474650e-07 -1.1076610505292123e-07 -1.4238270564712814e-08  -1.4016084621737321e-08 3.4884533002009782e-08 -2.9098667493768871e-07  -1.7400593489226002e-08 2.1963046727924505e-08 8.6629911288715836e-08  -2.5655608708062947e-08 -6.0999200358842279e-08 -9.2766065475587648e-08  2.2359290790046021e-08 2.1369665836269951e-09 -1.0529313000314952e-07  -2.1056886226438798e-08 -3.5356264472878054e-08 -1.2118451289989094e-07  -1.3472494338642879e-08 1.8640641670519972e-08 -6.5106868701811636e-09  -4.8471778565049155e-08 4.3021448435976331e-08 1.1003977835260466e-08  2.9987620173589882e-08 -2.5819911968787260e-08 -4.5643321975310999e-08  -2.3872561135340404e-07 8.7055997877050628e-08 -3.0766357965824408e-07  3.1728587040431597e-09 2.8031693258929797e-09 -2.1932951185257973e-08  1.5914852421807311e-09 3.8026831114693482e-09 -2.4467057406414589e-08  3.9288180368908945e-09 -3.2756368908838839e-09 9.3868599760096112e-08  -1.9209051510357253e-08 5.3503108777366751e-09 -1.1505623334665371e-08  3.7112483133740189e-09 -3.1458980681964825e-08 -6.8487673405472160e-08  -1.5933743902483598e-08 5.0874924523736809e-09 -1.2886910329791185e-09  2.4293070567409435e-08 -1.1468495970337401e-08 2.9420915846500526e-08  2.3008982671746879e-08 -2.1958034032193064e-09 -6.8784755191640094e-09  1.3903073173056647e-08 7.4460944589720216e-10 -5.9070084293416652e-08  -1.5076058923268604e-07 -1.0965891556528064e-07 -1.5249993894064753e-02  3.6955274747247003e-04 1.3445172117228549e-04 -1.5250553127053134e-02  7.4284076233533589e-09 6.4319896066677856e-09 -1.9004529650239548e-08  -3.9732735835287235e-08 -2.2857187062678887e-08 -2.2744997368402362e-07  7.7044528378975323e-10 8.2824088870787165e-09 7.0796230152505855e-08  -6.9345176780499500e-09 4.5423152551944785e-08 -1.2481893786549978e-09  3.7792869790407830e-08 -3.4968932861810551e-09 2.1310382097764978e-07  3.9422603108304343e-08 5.6561961210229698e-09 -1.4389936334155421e-07  4.5042106447380009e-09 1.9563534615082686e-09 -3.6954038871853084e-08  -1.0375312288176737e-08 -1.0971480060710809e-08 -8.7164982650502537e-08  -5.8816903930234283e-08 4.7354248481622201e-08 -2.0495456574498944e-07  3.0682126676140699e-08 3.0507116635024684e-08 -1.4331387790216766e-07  2.2987947538355930e-09 -1.1538496788744565e-08 6.8878208157558375e-08  1.1615726029770229e-04 2.6326393540774428e-04 -9.1755823267167611e-03  -2.7245421337625443e-07 -3.7684009306719545e-09 -1.5250073959529582e-02  -1.7166280764695127e-08 -1.1700384442358934e-08 -9.2343586642265713e-08  -4.5980827405381916e-08 2.1056912288970756e-08 -1.3981330908180090e-07  6.7577246628797805e-06 -8.2700186368940833e-05 -1.1830713997606580e-02  -4.6081314135208622e-09 9.4797745945993283e-09 -5.0890974891332811e-08  4.6516683830273210e-08 3.0448116282574353e-08 -2.1586211889004068e-07  -5.0989333985972362e-08 3.7102163434158621e-08 -1.0921336505491726e-07  2.6850662851031536e-08 2.6255955273377282e-08 1.2770623046198459e-08  -2.1459194621785905e-08 4.4611159896098405e-08 2.5114574018585796e-08  -2.3009907548373758e-08 -1.5698522432412709e-08 1.2869588608362644e-08  -5.5483105490095397e-09 -1.4548573865640508e-10 7.5995171259945357e-08  -6.9940164978429817e-09 -3.8385826303823538e-10 -2.4696672096889929e-08  -4.0991140009725180e-08 -2.9426195904711352e-08 -3.1527626494129459e-07  -3.9933608355639143e-04 -2.1559102169301075e-04 -1.5250430259524873e-02  5.5457826351853936e-09 6.0224395811350812e-09 -4.2718927185275805e-08  -1.1732264313613913e-07 -1.0719152207870258e-07 -3.8149266902012789e-08  -2.1114022358966970e-09 9.4023678426482133e-09 -4.8841888499147383e-08  4.1567088391849528e-05 8.1140504519972416e-05 -8.8263283562438014e-03  -1.8790193916578531e-09 -7.3271938694170406e-09 -1.8640365004171725e-07  -1.1824181950944579e-08 6.8313830127950768e-09 -6.9790201342068412e-08  -6.4046025053162575e-09 1.0477496406661444e-08 -6.2078828468551542e-08  -1.9601821353044760e-08 -1.3415670023876608e-08 -1.7872194274264816e-07  -4.0450201329809546e-08 1.6438720557349250e-08 2.4510925672815664e-07  -2.8824341265546930e-08 -1.3863911638548591e-08 -1.3912712804629015e-07  -1.6336336262719060e-07 1.0028772085264230e-07 -1.4306435275379449e-07  -3.1294780172173607e-08 -2.3684451835625065e-08 -1.6211354879764687e-07  -9.6848509516940411e-09 -1.0762359526550988e-08 -1.6560394919670054e-07  -6.4587145559323348e-08 -1.7887161603234341e-08 3.4244049076160218e-08  -7.5360314967343818e-04 -3.1793010528909403e-04 -1.5250139189101241e-02  -1.2065121129507367e-08 9.0342193199066114e-09 -1.0456686950012183e-07  2.3808528480038665e-08 -2.0692123439065471e-08 -5.9560255988055367e-08  -3.1795520413462876e-09 -1.0597707224452462e-08 -9.4629840180793197e-08  8.9238446610023633e-06 1.1970298959333532e-04 -1.4306469996771227e-02  6.0153452692413020e-08 5.4509670881553560e-08 -3.7081889210378601e-08  3.2269195110196798e-08 -3.2320310331446759e-08 -5.6573353738164355e-08  -9.2518163349013011e-09 4.7178636615534880e-09 -1.3926056076302148e-07  -2.2554964599641875e-08 -1.5820782158707508e-08 -2.0533717928471196e-07  -1.6879262618063905e-07 -2.0604241384613613e-07 -1.5250075497763084e-02  2.0634734025498816e-08 2.0615748626420347e-08 1.1064026577376825e-07  -1.1841044285928770e-08 3.4872176163932334e-08 1.1088876318554068e-07  3.8072032025788860e-08 -9.4296020735150826e-09 -1.4412290841815678e-08  -5.0254390278278700e-09 7.6273408186374766e-09 -2.0514386318982573e-07  -1.6319258714318310e-04 3.9154480915286799e-04 -1.5250277297453492e-02  -6.7290910126763080e-06 7.9260206363796856e-05 -1.5061444769736225e-02  -1.7606697677631995e-08 1.7847775851794126e-08 -1.3858103403377063e-07  9.5945180044028502e-09 -4.2340001346212307e-08 1.3788301710885655e-07  1.3265136293248991e-08 3.7617167780216903e-09 1.7870841461510877e-07  -9.7425633284590279e-10 -9.0428355745943229e-09 7.7733458989913078e-08  -2.1106804856011628e-08 7.8379174873451894e-09 3.2775938531610889e-08  -7.3774245688786713e-10 -2.3336796477777626e-08 -1.4335841405423933e-07  -4.9033971970035699e-08 5.6162140559905866e-08 -2.5750151070171713e-07  -4.4699359996021173e-08 1.7876051799111817e-07 -1.5249951246931907e-02  -5.4919246318110275e-09 -1.1602682193961281e-08 -8.6097658140156700e-08  -1.1228025147046420e-08 4.6106361646157327e-09 -7.2051413610575075e-09  6.6987929247682619e-09 -1.1880009052675200e-08 -2.5148797738028423e-07  -4.7261583635908405e-04 -9.4245684335752240e-05 -1.5250141098626550e-02  -2.3720181194969676e-09 -5.6397048032440706e-09 -1.7031996601623655e-07  6.6177327610800413e-05 1.2634310683254944e-05 -1.4900856589535929e-02  -3.9269479296108600e-09 7.3020322688440298e-09 -1.4826413544393118e-07  -1.3183966323453834e-08 3.1599723407913789e-09 -7.5926228115548470e-08  -1.0351530076242843e-08 1.3563536436493911e-08 -3.9989145620305466e-08  -5.3279380816849374e-09 1.4551058972146564e-08 1.0842852188880356e-07  -2.0286607309980639e-08 -4.0619835876686412e-09 7.7882255323503145e-08  -9.0786286185707773e-08 -1.0556366343917405e-07 -2.4067966285172207e-07  -7.8856853000795074e-04 -4.4623158821967366e-04 -1.5250204314886275e-02  -2.5139509366766983e-07 -2.4517414061475640e-07 -2.2718180922328635e-07  -1.6158451149584453e-08 2.9728225550223969e-08 1.5248779765111202e-08  1.0540821498838658e-08 -1.1225061690202513e-08 -3.8839042988011363e-07  3.4390206144486824e-09 -2.6719461421444635e-09 5.4457057831484087e-09  -4.4216191516665679e-09 -1.0554209004612101e-08 -3.4322606335684169e-08  7.4877787474887710e-09 8.1293732621936301e-09 -2.1419651681743673e-07  -2.2728531111065082e-08 7.3520538107998604e-09 -5.3992931770936580e-08  1.5955196609473851e-05 1.2402511673929956e-05 -1.5103193475977085e-02  7.5450816562816355e-10 1.6887913763799583e-08 -1.0398496773754422e-07  1.8926587864897637e-09 -2.0364836506208758e-08 2.4678996522111200e-07  1.1109425740430938e-09 -1.4051993117235091e-08 3.4864370323784756e-09  -1.1175947493489832e-08 -5.4248615000850725e-09 -3.9430671320186127e-07  -6.8126294769462240e-04 6.7149589102078844e-04 -1.5250177765827266e-02  -1.6853010260560547e-09 4.9259453261134878e-09 -1.6112804712965324e-07  -1.5211951140641031e-07 1.9034709456984848e-07 -8.3946899935369466e-08  -2.1543227139907343e-08 5.1468755903904077e-09 1.9127301132251532e-07  -9.9485651961758533e-10 -2.3532113034022658e-08 4.7978811611130736e-08  -1.7129565830463279e-05 1.9827294613067474e-05 -1.5674820525882833e-02  -3.2997454629451968e-08 -4.0767884177691731e-08 3.3188851541961997e-08  -3.3357060087077227e-09 3.4905478841111023e-08 -2.9241203351535419e-07  -4.1561469696381578e-04 1.0790056717334744e-04 -1.5250142225283685e-02  -8.3691503187811659e-09 2.1085058525758173e-08 9.4178761725160966e-08  3.9647614157269151e-05 5.7155044509620230e-05 -1.1576786136079575e-02  -3.6362639904344479e-09 -2.2289734111717545e-08 4.3174861300536911e-09  -5.5060639061980638e-09 2.0060216387740657e-09 -2.7734202324273037e-07  -4.1123754995722034e-04 -2.2165577195415857e-04 -1.5250098618208849e-02  -3.6009205285558503e-09 2.3451038005578554e-08 4.6330704700667631e-08  -7.6536220293054496e-09 1.0620471872842782e-08 -9.0750069060456157e-08  -2.0609627167624780e-08 1.0499565124344797e-08 1.2742275792716815e-07  -7.8184869828248720e-10 1.7612374949960751e-08 -8.6006096517220023e-08  -1.4547672958177042e-08 -5.2815074175318963e-08 -2.7836721086964366e-07  -1.4911165031741186e-05 3.0646459799853470e-05 -1.5361413003704595e-02  -1.1226500011109685e-07 -2.2010777509531935e-07 -1.5250213055115135e-02  2.2183395298827291e-09 1.3709205007749852e-08 -4.4182699479596367e-08  8.4417798359258434e-11 -1.1815413559269530e-08 -1.7904481070739424e-07  1.2436339581438770e-04 1.8229488457764842e-06 -1.2081948410839724e-02  -1.7180058776868567e-08 -1.4854851295946643e-08 -3.3548808075515313e-07  2.4750957845799478e-09 -1.4032024828092004e-08 -1.3781185757557922e-07  -8.6271693631070460e-09 -1.8486726594835227e-09 -4.1405581404650835e-09  8.5041081804729600e-09 7.8887551314082766e-10 -4.8691910226794701e-08  -3.3859186203929756e-09 9.0462337091574755e-09 1.9943312695832491e-07  -7.3469195994583749e-09 -4.2592694305913908e-09 -2.7771068114705339e-07  -1.1855849437579605e-04 2.7418707701393051e-04 -1.5250309818020898e-02  1.1539711124347932e-08 1.5582053891664652e-08 -7.8742869173938540e-08  -3.8161551747867598e-08 6.3501380704255534e-08 -1.5250174808032460e-02  -1.0470017504103671e-08 6.2540468057248859e-08 -1.3920706268307299e-07  -1.3873817470764984e-04 -3.1885258204086559e-04 -1.5250381315826516e-02  -1.0179947822815548e-05 3.5650574304751886e-05 -1.5701008756038085e-02  -3.3877735103271159e-04 2.7186936039285845e-04 -1.5250155250421060e-02  -9.0032760840640428e-09 -1.5055563070070393e-08 1.7756238738609492e-07  -2.1568735734933357e-10 -1.2213579702813802e-08 -2.3080982837377004e-07  1.9511363354719821e-08 -3.2487366268363764e-08 1.4980817960997251e-08  -3.9043761321970321e-08 4.9434016417464453e-08 2.7381347487016244e-08  -1.3644937976343054e-08 1.7100015802888931e-08 -1.2059538111865532e-07  -2.8913626168429896e-04 -2.0070475164889094e-05 -1.5250003297418350e-02  4.2431972210252970e-09 3.7616944254923083e-08 -2.6417654275537205e-07  4.2491648416457076e-09 -1.5592381145190014e-08 -2.8908738816659640e-07  -2.2524085100984553e-07 -3.7151534172375775e-07 -1.7592265853215344e-07  5.3348065081987830e-07 1.8942660425068941e-05 -1.5757257088540290e-02  -1.3067647889863358e-08 7.0750352058303727e-10 2.6924674996927014e-08  -1.3460623516115627e-08 -1.0685117569532209e-08 5.1452648347087074e-08  -6.1479777285643500e-09 -4.7406836490838579e-09 -2.0151356488544067e-07  -4.9356271460443609e-09 -8.4922708569764400e-09 -2.1356786429797932e-07  -2.5170621071438288e-08 8.8213869261187208e-10 6.5890233539454758e-08  -2.4685276863933164e-04 -3.3966192096370791e-04 -1.5249991380690230e-02  1.3599009856950377e-08 -4.2076694510623359e-08 1.2610451058547452e-07  9.6551225746543560e-09 -2.0100738945970874e-08 5.2352932122757478e-08  -1.2880947045929095e-08 -3.7949820729946823e-08 -4.6646989156582505e-08  -6.7709190729087245e-06 1.8837442852449383e-05 -1.5772872419419517e-02  8.7111557679462740e-10 -1.6727552290720549e-08 1.8594203482827901e-07  -2.1099878282212179e-08 -1.5677589918743658e-08 -4.8187630758341112e-07  -2.6110550631939025e-04 4.6761946397019832e-04 -1.5250110206044941e-02  -8.4254841240752560e-08 2.8934914480256091e-07 -1.6077587100240244e-07  -3.1453621511640316e-10 -2.0118820046899899e-08 -3.1151724496809601e-07  8.0662925669225874e-09 -1.8576868685763283e-08 -1.8914563366520103e-07  1.2695079481313054e-04 1.4884402910139214e-04 -1.1356953179091432e-02  1.1050780781899555e-08 -1.8336310853115824e-08 1.1544915178237530e-07  1.6969186335929562e-08 -5.2076155216889452e-08 1.8059373144813298e-07  9.0282715261650175e-05 -3.7730019805247032e-04 -1.5250413786934954e-02  6.6111284005109251e-10 -6.6967580504906134e-09 -1.1360294597603217e-07  3.8066244473020181e-09 8.8504421676592516e-09 4.9980442698254988e-08  2.8684954867637290e-06 3.2967535371697222e-05 -1.4717318902129104e-02  -1.8960922099907915e-04 9.8454811634519091e-05 -1.5250176935158958e-02  1.2239471222273117e-09 -7.4130889102819147e-09 4.4995203468491550e-08  -2.8591074588727561e-08 2.4704933631563188e-08 7.2605005384300541e-08  1.6787808090358575e-06 1.3752209369583512e-05 -1.5413472511194886e-02  -1.9203350635484286e-09 1.3094694138231106e-09 -3.2916929806785641e-07  -1.7032264473086544e-08 6.9657819928251331e-09 7.8280511491414090e-08  -1.6775005178110112e-08 -9.3101476926560540e-08 -3.5849624720366217e-07  1.5221716065574609e-04 1.7906408986360556e-04 -1.5250371408