<?xml version="1.0"?>
<VTKFile type="UnstructuredGrid"  version="0.1"  >
<UnstructuredGrid>
<Piece  NumberOfPoints="2696" NumberOfCells="14811">
<Points>
<DataArray  type="Float64"  NumberOfComponents="3"  format="ascii">-0.1979385791209487 0.0033709727463301 0.9295263320918322  -0.197835 -0.00622264 0.274557  -0.197814 -0.00186273 0.196017  -0.197796 -0.0035332 0.7114549999999999  -0.197727 0.00191462 0.50284  -0.197703 -0.008740639999999999 0.8566049999999999  -0.197549 -0.0102037 0.7877110000000001  -0.197548 0.0113468 0.66915  -0.197537 -0.00953508 0.55181  -0.19752 -0.00496649 0.107536  -0.197465 0.0115805 0.748795  -0.197382 0.0167696 0.4544  -0.197295 0.0146056 0.314852  -0.197197 -0.009419250000000001 0.389793  -0.197178 -0.018171 0.429727  -0.197178 -0.0107776 0.348287  -0.197118 -0.0194841 0.895669  -0.197001 -0.017375 0.597677  -0.196956 0.0143744 0.821971  -0.196928 0.0205063 0.235106  -0.196802 -0.0193726 0.151544  -0.196444 0.0259048 0.892297  -0.19639 0.0206834 0.626655  -0.1963873158294226 -0.0205981463462331 0.0703801197932763  -0.196247 0.0254349 0.162507  -0.196151 -0.0250107 0.642054  -0.196018 -0.0270119 0.234649  -0.196012 0.0264592 0.581747  -0.195863 0.0291511 0.124242  -0.195572 -0.0295152 0.47423  -0.195487 0.029498 0.362014  -0.1954815850342504 0.0280030082616107 0.070443436824384  -0.195225 0.0313983 0.535552  -0.194931 -0.0332268 0.31197  -0.194706 -0.035849 0.687234  -0.19458 0.0348951 0.408708  -0.193966 -0.0385128 0.739262  -0.193954 0.0389074 0.783938  -0.193947 0.0397657 0.276222  -0.193801 0.0388097 0.703691  -0.193375 -0.0411793 0.521222  -0.192907 0.0443264 0.854917  -0.192883 -0.0423873 0.828442  -0.1928201337669533 -0.0453765658264667 0.9294277046715519  -0.19271 0.0449239 0.48896  -0.192223 -0.0462584 0.192819  -0.192021 0.0477785 0.197104  -0.191947 -0.0467137 0.111653  -0.191548 -0.049242 0.780972  -0.1912088311241861 0.0513301980589333 0.9296259083152576  -0.190726 -0.0523076 0.568147  -0.190693 -0.0525744 0.273948  -0.190651 -0.0511343 0.357124  -0.18966 -0.0556819 0.399121  -0.189534 0.0565247 0.320671  -0.189194 0.0583603 0.657717  -0.189077 0.0586335 0.7427859999999999  -0.189019 -0.0586833 0.878915  -0.187955 -0.0616867 0.61414  -0.187839 0.0626466 0.446518  -0.187834 -0.0624619 0.445112  -0.18783 0.0610886 0.10619  -0.187074 0.0634459 0.611753  -0.186538 -0.0656929 0.15269  -0.186522 0.0664604 0.237395  -0.1862941105868434 -0.0659446445189459 0.0703431987188784  -0.186217 0.0667982 0.564738  -0.186205 0.0652911 0.818258  -0.185825 -0.0682844 0.658985  -0.185052 0.0694689 0.365511  -0.184862 0.07090920000000001 0.152427  -0.184377 0.0722772 0.892311  -0.184342 0.07162060000000001 0.523261  -0.184174 -0.07112209999999999 0.233889  -0.18392 -0.0728483 0.491336  -0.183646 -0.0737172 0.709131  -0.182635051662962 0.075543994090529 0.0705295991617385  -0.182577 -0.0754157 0.320045  -0.180979 0.0800478 0.7007679999999999  -0.18001 0.0820521 0.279576  -0.179509 -0.0825477 0.801126  -0.179364 -0.083429 0.537493  -0.179347 0.0832822 0.406392  -0.178907 0.08457430000000001 0.778914  -0.1783553993070672 -0.085915478612291 0.9293478922383408  -0.178195 -0.08572100000000001 0.756186  -0.177579 -0.087004 0.845381  -0.176608 -0.0893472 0.194167  -0.176575 0.08925900000000001 0.485775  -0.176446 -0.0890339 0.112595  -0.176379 0.0900194 0.194859  -0.1756 0.0910979 0.8542  -0.174662 -0.09314210000000001 0.278902  -0.174278 -0.0935908 0.584152  -0.174203 -0.0933075 0.365173  -0.174164 -0.09382989999999999 0.415226  -0.1728578929710871 0.0963412128064321 0.9297219652638795  -0.172797 0.0960951 0.323087  -0.171322 0.09842430000000001 0.113089  -0.170734 0.100453 0.663209  -0.170582 0.100165 0.58258  -0.169409 0.102154 0.73803  -0.169038 0.102629 0.6251100000000001  -0.169011 -0.103019 0.461309  -0.16868 -0.103463 0.630672  -0.168673 -0.103295 0.888113  -0.167988 -0.104648 0.6754790000000001  -0.167487 0.105466 0.446821  -0.1665932206929432 -0.1066082641898177 0.0703316623379414  -0.1665542269907589 -0.0164565448383893 0.07044578692777489  -0.166345 0.10713 0.237415  -0.166217 -0.107161 0.154277  -0.165419 0.107957 0.533266  -0.164811 0.109199 0.365997  -0.164777 0.109206 0.8154169999999999  -0.164188 -0.110313 0.238368  -0.162943 -0.112058 0.723619  -0.162557 -0.112782 0.506751  -0.162187 0.113412 0.15494  -0.16191 -0.113549 0.321307  -0.161444 0.115003 0.891108  -0.1604420661658044 0.0146273806673605 0.9295574688429359  -0.1602598123396178 0.1160437417507107 0.07062615473235211  -0.160168 -0.116002 0.810227  -0.157829 0.119276 0.280636  -0.1567320568516814 -0.0231895056523025 0.9294809002616296  -0.156702 0.121036 0.696769  -0.156144 -0.121318 0.552073  -0.15412 0.124011 0.407379  -0.154078 -0.124052 0.393249  -0.153624 0.124647 0.775531  -0.1535340523934404 -0.1249814957951267 0.9292733323963596  -0.152801 0.125612 0.491484  -0.152424 -0.125655 0.767989  -0.15228 -0.126676 0.199508  -0.1519092810261558 0.0297418710723635 0.0705338935993978  -0.151447 -0.127174 0.8512690000000001  -0.151237 -0.127409 0.113987  -0.150989 0.128177 0.196602  -0.1509375892736138 -0.0687187491227195 0.9293890034072281  -0.149257 -0.129933 0.5995  -0.148955 -0.130158 0.279123  -0.148306 0.130775 0.567005  -0.148011 -0.130967 0.434067  -0.147649 0.131776 0.8514969999999999  -0.147611 0.131561 0.324852  -0.145153 0.134184 0.113633  -0.144893 -0.134509 0.356616  -0.144625 -0.135033 0.6898339999999999  -0.1445360162843305 0.1355558459026237 0.929808318986533  -0.1439675771195814 -0.0578866854091632 0.0704391260622261  -0.143829 0.135921 0.608905  -0.141204 0.138569 0.73467  -0.140855 0.139042 0.65255  -0.1404540138128386 0.08533074795526741 0.9297064444991761  -0.140318 -0.139466 0.478278  -0.139323 0.140494 0.449838  -0.139283 -0.140526 0.646515  -0.138847 -0.140937 0.161768  -0.138519106987936 -0.1411639404625633 0.0703448129773427  -0.137072 -0.142684 0.889615  -0.137046 0.142736 0.239426  -0.135607 0.143896 0.368263  -0.134005 -0.145792 0.238958  -0.1339720226795165 0.07224646464135979 0.07062399611493619  -0.1335745826921163 0.0415371776853675 0.9296183332850809  -0.133518 0.145631 0.530423  -0.133376 0.146124 0.811813  -0.132374 -0.146909 0.731178  -0.131907 -0.14741 0.808707  -0.131378 -0.147778 0.520023  -0.130632 -0.148372 0.316861  -0.13055 0.148671 0.155848  -0.1291236351064474 0.149981852441302 0.0707321551135347  -0.128863 0.150088 0.282771  -0.128839 0.150425 0.8893180000000001  -0.1267 -0.151848 0.565478  -0.1252854735040017 -0.0120546987785584 0.0705349465728944  -0.125145 0.15343 0.692365  -0.1227563079525674 8.806581514139999e-05 0.9295358702659383  -0.121745 -0.156092 0.400657  -0.121292 0.156359 0.409972  -0.119895 0.157187 0.77139  -0.119781 0.157463 0.491713  -0.1194179600600905 -0.1579446220516861 0.9292132682112676  -0.119175 -0.157758 0.132585  -0.118998055642983 -0.0953143062060107 0.07044235512741991  -0.118602 -0.15823 0.0971812  -0.118513 0.158562 0.198711  -0.117743 -0.159047 0.199249  -0.117435 0.159173 0.57506  -0.116997 -0.159334 0.447823  -0.116428 -0.159921 0.610905  -0.116343 -0.160107 0.848966  -0.1154976985546171 -0.0431281315310715 0.92944902229663  -0.115057 0.160759 0.328625  -0.114545 -0.160994 0.7693719999999999  -0.11357 -0.162151 0.688621  -0.113561 -0.161924 0.277232  -0.112557663801153 0.1094814443801144 0.07071447532788321  -0.11107 -0.163627 0.356871  -0.110864 0.163785 0.114014  -0.110545 0.164207 0.848884  -0.109823 0.164698 0.620289  -0.1086862208438791 -0.08972131216765521 0.9293551685837587  -0.1079732385850296 0.1655127422880804 0.9298775137504505  -0.107589 0.166136 0.728747  -0.1075272980624538 0.0311689630862973 0.07062559600125989  -0.103962 0.168363 0.452237  -0.1032954479124515 0.1164500360075688 0.9297781462474115  -0.100588 -0.170207 0.487655  -0.100376 0.170678 0.663852  -0.1000803470769461 -0.0509416938946247 0.07053680669504871  -0.09955749999999999 0.170964 0.24292  -0.09907050000000001 0.171199 0.369174  -0.0986185 -0.171738 0.889131  -0.09796539999999999 -0.171915 0.649235  -0.09740699999999999 -0.17233 0.161767  -0.097251339426365 0.0707700227100411 0.9296859949020695  -0.0969980047663789 -0.1722367517107466 0.0703896068722651  -0.0964192 0.172853 0.289411  -0.09624489999999999 -0.172797 0.53431  -0.09573902337273139 -0.1350153336170769 0.9292652994320775  -0.0953927 -0.173393 0.23818  -0.09533560000000001 0.172912 0.535989  -0.0944503 0.173781 0.806945  -0.0937847 -0.174175 0.808592  -0.09374059999999999 -0.174154 0.7292689999999999  -0.0925609 -0.174369 0.315747  -0.09220040684773249 0.1382004359802618 0.0707920402755539  -0.09151529999999999 -0.175335 0.5756520000000001  -0.0911936527373562 0.1754460919725641 0.0708411967629735  -0.09107 0.175596 0.155475  -0.0904421499997534 -0.1282641830470459 0.0704585130530814  -0.08933498809653991 0.0270766608672483 0.9295983128945873  -0.08894299788880949 0.071498729144695 0.07071425787430551  -0.0886301 0.177038 0.88652  -0.0871377 -0.17784 0.429652  -0.08344500000000001 0.179543 0.413301  -0.08315400000000001 0.179541 0.19843  -0.0830471 0.179519 0.496354  -0.0816740624328738 -0.0079541711151824 0.0706284701629597  -0.0816156 -0.1803 0.388552  -0.08159420000000001 0.18014 0.761417  -0.0813456 -0.179981 0.114798  -0.080956520777233 -0.0163951742212607 0.929511184027064  -0.0802515 0.180554 0.580158  -0.07814494384415779 -0.1818584686015525 0.9291732655809544  -0.0770161 0.182266 0.7076519999999999  -0.07589079999999999 -0.182673 0.198794  -0.07441399999999999 -0.183474 0.849063  -0.0743859006847417 -0.0870211145563831 0.0705432096461989  -0.0742638 0.183324 0.326269  -0.0733857 -0.183699 0.610829  -0.0730639 -0.183897 0.688674  -0.0729175592668386 -0.0608321012656781 0.9294220072461233  -0.0718623 -0.184119 0.767717  -0.0712889 -0.184493 0.277417  -0.0708470790097338 0.1089174013425698 0.07079824786338459  -0.07060180000000001 0.184722 0.11053  -0.0693175 -0.184934 0.351394  -0.0692815 0.185262 0.625691  -0.067479488723668 0.1424851459384916 0.9298391558448666  -0.06657398812954721 0.1863501123291
[...]
<PointData  Vectors="f_26"> 
<DataArray  type="Float64"  Name="f_26"  NumberOfComponents="3" format="ascii">1.6180454435045362e-08 -1.0480579437755056e-08 -2.1832149496034322e-07  -7.6283794636521990e-10 1.6151623082333469e-08 -2.2679021088126017e-07  -2.4167551218017338e-08 -9.9900494463237600e-09 -2.6661436744283225e-07  -2.0203399582273456e-09 -8.8104097784979949e-09 2.4556332430948283e-07  -2.0388792668375641e-08 -2.0844535394138195e-09 7.1208614944140314e-08  2.7053928513233385e-08 -1.1141666094242055e-08 -1.0224767141072673e-07  -1.7759295298383180e-08 -3.9250623135925634e-08 -4.8345083352209148e-08  -8.2714611937313936e-09 -2.7090527271363473e-09 1.8031722935630364e-07  -1.1224852679605368e-08 1.9889825086255655e-09 1.5228766922000480e-08  -4.0536516491947604e-07 1.5465773096040329e-08 -5.7968161073955371e-07  -2.1116026827675656e-09 -6.5130897660052912e-11 4.6846170063917268e-08  5.9800525953336328e-08 -8.2593177961028379e-09 -3.9930081387280236e-08  -3.6488712394030361e-08 8.5966161813796855e-10 -1.1136295305932111e-07  5.1735027514398998e-08 -4.0592613910973966e-09 -8.6376008702083304e-09  -5.9370926486343355e-08 -1.0428132769289262e-08 -4.3500064935820853e-08  -4.7004094968498768e-08 5.1118983720317575e-09 -2.0293879895428952e-07  2.0565477876295284e-08 -1.3322828220778609e-08 -5.3151301272429384e-08  -2.3683013634425416e-08 -1.1844648891658077e-08 -6.0449169546035705e-08  -2.4389255894045717e-08 6.3509919172064552e-09 1.9220841293102162e-09  -3.0753892252886911e-08 -1.7426119945335561e-09 -2.0854530705160198e-07  -7.2032556624988724e-08 1.1752363217437161e-08 -4.8504293922224707e-07  6.2308567635698660e-09 1.2367018178592892e-08 -6.3427434909346344e-08  -1.5452505605477630e-08 6.4609719549604326e-09 -2.2737258648003296e-09  2.7622186823899767e-07 -2.3958698363574744e-08 -1.7750112246621277e-02  -1.0926402569337657e-07 -4.5530626927506367e-09 -2.3215101940846710e-07  4.6244470039606557e-08 1.0055439339081077e-08 1.5229292596290188e-08  7.6251590182134399e-09 2.0608228865873450e-08 -2.9252740403728231e-07  -1.8049309021108034e-09 2.7061649873442119e-09 1.0197287820847912e-07  -1.7745374625106308e-07 5.1139074562393285e-08 -6.3583999948801862e-07  3.3378977507755766e-08 1.6327948275538000e-08 -3.7859336885840917e-07  3.4267111132411569e-08 -1.3796103277834622e-08 4.9192139413431550e-09  -8.9872318656852280e-08 1.4564984590130878e-07 -1.7750468780352826e-02  3.0132989957130107e-08 -2.7325027935661196e-10 3.9092447055355083e-09  -1.7810409087862910e-08 -8.7527355532369760e-09 -2.0222874475777111e-07  -2.5471548659716779e-08 -6.2400882569324518e-09 6.5957293129203776e-08  -3.4795717985504406e-08 7.1630859363456174e-09 -2.2576592797572172e-08  2.7149577910264330e-08 -5.8937191049519262e-09 1.4994401431758622e-07  7.1432865222725687e-08 -2.7806775117734780e-08 -3.6549548762080924e-08  4.2939096052445497e-08 -1.2294817190254072e-08 -3.1254328960254301e-08  7.6648210651277846e-09 5.7954204519542638e-09 3.3176876800244019e-08  4.3281142022001424e-09 1.6445857914868088e-08 -5.9717764950264052e-08  -2.9871747636846238e-10 4.1087010420345645e-08 1.3384703882456254e-07  1.2687821034197030e-08 -3.2786652397023210e-09 -2.5986051226924584e-07  2.6773643515373893e-09 -6.7751004837688784e-09 -4.0295560272832553e-08  1.9063196630679589e-08 -3.4744245412892773e-08 -9.5676848119259375e-08  -5.1785465205071484e-08 -2.2547444653967999e-08 -2.0191016603194792e-07  2.8638476012604665e-08 -5.5632629788632865e-09 -3.7430895624762367e-07  -3.6523392844509057e-07 -6.1486680421837076e-08 -6.3257961612303667e-07  -2.5163724050070898e-08 -1.8782869082644103e-08 -1.5118198451052259e-07  -2.9315264957323373e-08 4.4497443488123002e-08 -2.0052574575861428e-08  2.7184991301575998e-08 4.0491075451095957e-09 9.1943624525301437e-09  1.5103848476015028e-08 1.4111011168338742e-09 -1.4076586210627398e-07  3.0056560084857767e-08 5.5534928210418528e-09 8.0750600408819378e-08  -3.7575413187463869e-08 -1.0145127083308073e-08 9.5369548432870299e-10  -4.7251971641202729e-08 -1.7258677963291752e-08 -2.8114448495662948e-08  -7.3324569090578163e-09 4.9325933304266225e-09 -4.8805556810301163e-08  -2.6045600229309043e-08 -1.0891472061351024e-08 -2.7733104558598450e-08  4.0167750326569383e-08 -2.6453101717044066e-08 -1.8610718114534358e-07  -1.8968943730003594e-08 -1.5946036523547148e-08 1.4319372093929002e-08  -2.2772297771427378e-08 1.2710051612966160e-08 -7.5813021053578952e-08  8.7148441755958263e-08 2.8809533379263219e-08 -1.5012358943926223e-07  -4.5911554426761385e-07 1.6178038182389949e-07 -3.7081863183884668e-07  3.0549680767089196e-09 3.4427229435781312e-09 1.9073912868670802e-08  -7.6713287078317344e-08 -4.3935647086316185e-08 -3.4819468000356864e-07  -1.6917424088432316e-08 -1.0751781181373933e-09 -1.2388182964332013e-07  -3.5655253757676315e-07 -1.2644691756934461e-07 -1.7750480775047924e-02  -1.5313803026535061e-08 -4.0255032535389570e-09 4.3333380223793288e-08  1.7449784609046585e-08 -3.4816675054708454e-08 2.2028680641019792e-07  -6.8933611888623677e-10 5.6930628172397181e-09 7.6474926418458520e-08  -4.9960694309787254e-08 -5.3329725453446909e-08 7.5726824327738194e-08  -8.8460490534836961e-08 4.5965683420102657e-08 -3.2105142455208799e-07  4.9098785298580308e-08 -6.9789676414207412e-10 7.6273732006618258e-08  5.7207200656026774e-09 1.5446620752393960e-08 8.6980041124713629e-08  -1.4912083531325498e-08 1.0149049955556978e-08 -8.0597629618774134e-08  -1.2122537282121777e-08 -3.2780306201838116e-08 -6.4305824961590465e-08  -2.2574379905879081e-08 9.6246471424676646e-10 -1.1931201842706058e-07  -8.1686865398345866e-08 1.9063839687111925e-09 -1.7749998503948226e-02  3.8953607064167001e-09 -2.8062885441030082e-08 -6.8759284079226418e-08  1.6283633565939145e-08 8.1406019434517384e-09 1.0620145644639613e-07  3.7745970772470180e-09 2.0203696350591949e-08 3.3452706864372076e-08  3.8541389800507832e-09 7.0679888030399944e-09 -2.3809675723700965e-07  -2.6791078241031987e-08 1.1578883015114805e-08 -1.4766110863619333e-07  3.0948225993331812e-08 -1.4899915626703690e-08 6.5782317168777811e-08  -4.5080009284024100e-08 3.9416460587759267e-10 8.9036928127594339e-08  6.5181626652353569e-08 8.2680740747387665e-10 -6.3118584952823230e-08  5.5107892152001612e-09 -5.1756939589344667e-09 -4.7013608395515756e-08  1.3263081883350078e-08 -1.8656682715039794e-08 -1.8659507103861994e-07  -4.9947468282089395e-08 -7.6192984420066943e-09 -2.9517663148197274e-07  -5.3287566254126819e-09 1.0586319574373300e-08 4.4287445178428474e-08  -2.0625105045930495e-07 -1.2964642728147152e-07 -1.9083614238038086e-10  -1.9462192909453787e-08 4.2499306012487966e-08 -3.2887451275478155e-07  -2.7113775671345011e-08 2.9051794189949946e-08 1.1352601581042194e-07  -2.9654946986718225e-08 -7.3349405774297822e-08 -9.8236773190013212e-08  2.8445121247590989e-08 3.5049702244917321e-09 -1.1186908101578087e-07  -2.3399900342175412e-08 -4.5453313935362450e-08 -1.3118834088207707e-07  -1.7269323804456215e-08 2.2676588939971920e-08 1.2349201002938610e-09  -6.1138614436466514e-08 5.9682408569457222e-08 2.0585589144995723e-08  3.7175048291556591e-08 -3.3194881755213542e-08 -4.2464496944398049e-08  -2.7047720862953014e-07 9.8854066166864175e-08 -3.4213453285664998e-07  -5.4502030498145736e-10 1.0249181319556136e-08 -1.4522577809059495e-08  1.5656065959184732e-09 1.0290354621036411e-09 -1.8801631439166201e-08  8.5988993934694049e-09 -4.8044891112550627e-09 1.1954911861119977e-07  -1.7343282942734444e-08 4.4729691661070253e-09 -8.7736700576003220e-10  2.4841061351344953e-09 -3.5067191512156920e-08 -6.7231974452710458e-08  -1.5910968844041259e-08 7.0557401686474265e-09 8.3542260033395026e-09  4.7309209354925791e-08 -1.4503128149900036e-08 3.9866821787922073e-08  2.0472152848680011e-08 -7.0551986161268950e-09 -5.4398503493937450e-10  1.9725148736983744e-08 -5.7025821667825713e-09 -5.7269050792776461e-08  -1.7391976736008455e-07 -1.2904091690588618e-07 -1.7749977668527858e-02  5.6696652678873190e-04 1.2176134443335306e-04 -1.7750624676215951e-02  1.0893250844803425e-08 6.5717520107475292e-09 -1.2183442256224779e-08  -4.7637333964145114e-08 -2.4992187172851188e-08 -2.5376264852646469e-07  2.1603455377489664e-09 8.2795049050307649e-09 9.1611447370745546e-08  -7.8431185789882270e-09 5.5483556725926664e-08 6.4880401189799498e-09  4.8345051273756747e-08 -5.3024434632989872e-09 2.5215128843543984e-07  4.1371195753137412e-08 4.1126930538164574e-09 -1.5782799290819307e-07  5.4419343488497869e-09 3.0545084537410624e-10 -3.3507746517943246e-08  -1.0927255213293242e-08 -1.2176928394510791e-08 -9.3246097785679645e-08  -6.7781131802313911e-08 5.2775367847968358e-08 -2.2655364532144754e-07  3.7012472248702068e-08 3.7721287976994436e-08 -1.5683857063041477e-07  1.1800964763375635e-08 -1.5478231341537252e-08 8.9500876953104913e-08  1.6393823265114051e-04 3.5672964664214724e-04 -1.0707072876806665e-02  -3.0505530984111577e-07 2.2805667394480729e-09 -1.7750063710485535e-02  -1.6489196513497438e-08 -1.1307277332447901e-08 -9.6006928104761191e-08  -5.7525646574037380e-08 2.5338610378041257e-08 -1.5297491756616693e-07  1.1704171838560573e-05 -1.0868436497718243e-04 -1.3815885580431304e-02  1.1429807875126296e-10 7.6436880733914992e-09 -4.8676681865236281e-08  5.2922590772302968e-08 3.4786420438898611e-08 -2.4365599695321809e-07  -6.0637165497489004e-08 4.6010009748457112e-08 -1.1919418141792454e-07  3.6166763332403359e-08 3.3575108286422943e-08 2.6402863157114375e-08  -2.3938949796445606e-08 5.3940850006329062e-08 3.8197767008975781e-08  -4.4419458962601688e-08 -2.1845837594985248e-08 2.4301417628817756e-08  -8.5599812252473978e-09 1.7644316645744649e-09 1.0024989761662824e-07  -8.8470480604900375e-09 -5.8719402579276510e-10 -1.5437072898764801e-08  -4.6201552789359409e-08 -3.3685344273266637e-08 -3.5793481558473974e-07  -5.1487550461375077e-04 -2.6607371045189883e-04 -1.7750479612368020e-02  -6.9563238457683965e-09 -1.9324641893753939e-09 -3.9797245032043717e-08  -1.4348944120766318e-07 -1.2581106750416718e-07 -2.9501481192651468e-08  -5.7801669388410843e-09 1.3370704605547715e-08 -4.4509002538535606e-08  5.7202854756113693e-05 9.7364679102568191e-05 -1.0413834241645147e-02  -1.3531959679196156e-09 -9.3111545105078997e-09 -2.0725710120934113e-07  -1.2654012796346017e-08 9.0851440076421012e-09 -7.0447914631459518e-08  -4.1472850432762861e-09 1.1833000347579081e-08 -6.0239349740988164e-08  -2.4194924994651561e-08 -1.7590196329969222e-08 -1.9660047764527858e-07  -5.0873536837560644e-08 2.2732704528739430e-08 2.9664589284210171e-07  -3.6261424905241395e-08 -1.3714865897773211e-08 -1.5119149869586615e-07  -1.9300800199068831e-07 1.1832992334670677e-07 -1.4610876738035337e-07  -4.0199170515828754e-08 -3.0588232225373918e-08 -1.8006571819338956e-07  -7.2613490821517958e-09 -9.4562053910096301e-09 -1.8210532196094498e-07  -8.9965705770007465e-08 -2.3765175661073197e-08 3.8218919492851762e-08  -9.4536928956184070e-04 -3.3095106158608287e-04 -1.7750153533525635e-02  -1.5887793738716796e-08 1.2682278950083919e-08 -1.1030171569664159e-07  2.1972844634920794e-08 -1.7243800620454368e-08 -5.8405568547427569e-08  -1.3719676051629407e-09 -1.2420833795860256e-08 -9.8765132012164082e-08  -1.1159532517217516e-05 1.5242515072164109e-04 -1.6743960022060099e-02  6.7150174541655664e-08 6.5287769338344523e-08 -3.0092853573683199e-08  3.9727779563949959e-08 -3.7710865343396725e-08 -5.1741718186066031e-08  -1.2747302205480166e-08 5.5175363893842482e-09 -1.5170430476429319e-07  -3.0133110633903984e-08 -1.9636570937514811e-08 -2.2688194431238929e-07  -1.9720347796195224e-07 -2.3637270149032622e-07 -1.7750073705901086e-02  2.8230265631102375e-08 4.0881239305112174e-08 1.2776527228934157e-07  -1.3327031080926253e-08 4.1942507177389550e-08 1.4003798327977542e-07  4.8865342909280979e-08 -2.0592123121921340e-08 -8.9567455649718164e-09  -4.9348593614253924e-09 7.2427739087218749e-09 -2.3247384448825783e-07  -2.2096029597581208e-04 4.7984265175482000e-04 -1.7750303256272550e-02  -9.4418072566069771e-06 1.0540562520018941e-04 -1.7480542085347276e-02  -1.4727845445368466e-08 2.0342328836083739e-08 -1.5160453968043656e-07  7.7446169451659337e-09 -4.7023860695260088e-08 1.6902604516962970e-07  1.2156690695257112e-08 3.8085782547650673e-09 2.1558834701075131e-07  1.3439532414883374e-09 -8.6184325597757540e-09 1.0421864949066481e-07  -2.5266750182611125e-08 7.3356841077389452e-09 4.6754747419035490e-08  1.6268366833713345e-09 -2.7818166157719018e-08 -1.5652239749589686e-07  -5.6524758803125341e-08 6.6202905790006931e-08 -2.8877986935167720e-07  -5.4312288063023205e-08 2.1578745782958035e-07 -1.7749925609618585e-02  -3.7185581255726355e-09 -1.8797103524720621e-08 -9.3106256026632293e-08  -1.7346383207820630e-08 8.5720057047609579e-09 -7.2116202192574132e-10  7.6668654747600992e-09 -1.2656845279486105e-08 -2.8439481203063004e-07  -5.7122963930165754e-04 -1.1988356661716245e-04 -1.7750151163784419e-02  -1.4176345400421171e-09 -5.9206955409446895e-09 -1.9030521819959652e-07  7.4225648856606589e-05 9.2741862951072598e-06 -1.7408029456527196e-02  -7.5385742824205224e-10 1.0082001825677325e-08 -1.6453578592138579e-07  -1.6516132191569504e-08 7.7168247783441809e-09 -7.8672407158189754e-08  -1.1444840337766044e-08 1.2944879750177716e-08 -3.7580973825205999e-08  -9.5478886832910408e-09 1.7400333281698261e-08 1.3269040594436002e-07  -3.1163914075000796e-08 -4.8751339826423315e-09 8.6144750008157312e-08  -1.0392335800147255e-07 -1.1874068336515378e-07 -2.6533055824213635e-07  -9.9529014665438245e-04 -6.1547367459217656e-04 -1.7750223324516940e-02  -2.8308675766832145e-07 -2.8034729371169155e-07 -2.4958712133087805e-07  -1.7183911261446693e-08 3.2196317295718536e-08 2.8364596944148180e-08  1.2062399286149359e-08 -1.0127686692548966e-08 -4.4227741494784988e-07  5.0401879080889673e-09 -6.6819387441709362e-09 1.2953626132419736e-08  -7.8846211010906053e-09 -1.4694043920520518e-08 -3.1426253528326978e-08  9.4698640168678599e-09 1.0699442286792264e-08 -2.3922517719615418e-07  -2.6117494374640889e-08 7.7656419648416210e-09 -5.0589366438331564e-08  1.2040912516692620e-05 8.6912146216815874e-06 -1.7553303694703468e-02  -3.7051885316220523e-09 2.1333369441012778e-08 -1.1201477486467581e-07  3.1834446318185182e-09 -2.2140048647903119e-08 2.9467037865832859e-07  1.8076269112865624e-09 -1.4698477803422824e-08 1.4396327757104267e-08  -1.4161593643367800e-08 -7.4190407077824832e-09 -4.4957360613129744e-07  -8.3945815670976318e-04 8.4055189298384847e-04 -1.7750199462693399e-02  -3.5079536923505724e-09 2.1019233860639786e-09 -1.7811699319897673e-07  -1.7432486922755317e-07 2.1948913502643497e-07 -8.1573821286383109e-08  -2.5504802801715079e-08 7.7500868577697376e-09 2.3056126728990948e-07  -3.9149092982874498e-09 -2.2783723681352626e-08 6.3530533814893620e-08  -2.3445462807367161e-05 1.9626703422108506e-05 -1.8269465954243769e-02  -5.3716343362709384e-08 -4.6298696992785644e-08 5.0516484844620263e-08  -2.4271864454970164e-09 3.6834845959716446e-08 -3.2894658576655639e-07  -4.9939508841101291e-04 1.2850148256935166e-04 -1.7750156840993524e-02  -9.4669751662787350e-09 2.5812227085950520e-08 1.2156960758574041e-07  4.8797490155228844e-05 5.8686571216750611e-05 -1.3524659358067724e-02  -4.8708518862227611e-09 -2.4109319754465481e-08 1.4763840441470383e-08  -3.4020634305960832e-09 3.0892315535744614e-10 -3.0980168145413930e-07  -5.0014183448035738e-04 -2.5839138969026895e-04 -1.7750102075265430e-02  -3.5341654183911245e-09 2.7857624942327747e-08 6.6343980995014667e-08  -1.6373038559388906e-09 1.3918487946532717e-08 -9.6401304193967350e-08  -2.7570038050520265e-08 8.6176768923158720e-09 1.5384911253290323e-07  -2.9301926468384270e-09 1.9250713045541672e-08 -9.0856301176925247e-08  -1.8901367391308191e-08 -6.2069242372997816e-08 -3.0696893380654583e-07  -2.4425247715912958e-05 3.4969650242276402e-05 -1.7907791621201742e-02  -1.3610346636616446e-07 -2.5026060915887305e-07 -1.7750235009005667e-02  3.0609401243849701e-09 1.6013867050212581e-08 -4.1715072852837555e-08  -1.4956250698629964e-10 -1.4902874285760399e-08 -1.9958873433123913e-07  1.5790435294312909e-04 7.6855809086235183e-06 -1.4360020817552537e-02  -1.4817219420044763e-08 -1.4902850879728051e-08 -3.8256639880483231e-07  1.5223109559288131e-09 -6.8441452802080991e-09 -1.5494779131625865e-07  -1.0466294024154207e-08 -2.1320970227962432e-09 5.1215079147420573e-09  1.0639925330108000e-08 -3.2924996892346222e-10 -4.5903634722199727e-08  -4.4715381757964755e-09 1.0838067435484555e-08 2.4044598757139801e-07  -6.6310269189910654e-09 6.5947216810914075e-10 -3.1219632515256081e-07  -7.5890911702674463e-05 3.2020637169367168e-04 -1.7750341107339331e-02  1.4054378677067507e-08 1.8985587135077786e-08 -8.1782590705738223e-08  -4.3139260689339298e-08 6.3133777560848678e-08 -1.7750181071373012e-02  -1.1563601272982819e-08 7.1558196790956038e-08 -1.5078608576978974e-07  -1.1268700659081904e-04 -4.2285625344698035e-04 -1.7750428768378918e-02  -1.6667767089961716e-05 3.9704030750122180e-05 -1.8269506915915508e-02  -4.2427787509353185e-04 3.3150652680042096e-04 -1.7750166150442760e-02  -6.0735014994686914e-09 -1.3802109302985111e-08 2.1492007042123521e-07  -8.5654654806091002e-10 -1.4281926170369901e-08 -2.5901124129874322e-07  2.2709339603720775e-08 -3.9608843360334420e-08 2.9180977479369453e-08  -4.3967594621547413e-08 5.8241957933812547e-08 4.4522705650123565e-08  -1.6213313401893861e-08 1.0871638693379836e-08 -1.2767568579384574e-07  -3.4538133461623340e-04 -2.7238920998993445e-05 -1.7749997455173486e-02  6.5268636867653930e-09 4.4274133362670897e-08 -2.9868998300340341e-07  -1.9967028868038165e-10 -1.7214263095202476e-08 -3.2470621364687025e-07  -2.4970216680239054e-07 -4.1396151313003514e-07 -1.9014224503312844e-07  -4.0279234225843694e-06 1.9949829128750234e-05 -1.8354856221734890e-02  -7.2692543602108635e-09 -5.3912181660590831e-09 4.7817488209217569e-08  -2.6797205021472763e-08 -1.5993816756350220e-08 6.2763486467387493e-08  -1.0110151748324745e-08 8.4079312548872034e-10 -2.2538615713812727e-07  -7.5929804843440726e-09 -1.6350202140846801e-08 -2.4254444543965873e-07  -2.9289451327793495e-08 -4.6024539012030419e-09 8.6000232537235408e-08  -2.9848210719197885e-04 -4.3526911822135557e-04 -1.7749980729883954e-02  1.4834334595555317e-08 -4.3858689332613016e-08 1.5378618868353695e-07  1.0264108950669059e-08 -2.3924482601237440e-08 7.2056926450459206e-08  -1.6426388015037914e-08 -4.4632924813133116e-08 -4.3041061262732234e-08  -1.1968270349499138e-05 2.0058303777433543e-05 -1.8370994101803029e-02  1.3979669402268641e-09 -1.7433890047645852e-08 2.2704035604511845e-07  -2.5038660881308050e-08 -2.3056152729622402e-08 -5.5007254779422709e-07  -3.0511328655607106e-04 5.5989190975631366e-04 -1.7750113818344501e-02  -9.9005163121979654e-08 3.3626844180996810e-07 -1.7295903155936702e-07  -2.3731007685980007e-09 -2.8289294689413897e-08 -3.4937043027195346e-07  6.5736029131335832e-09 -1.5875917462045742e-08 -2.0859097775416096e-07  1.6683991531269197e-04 1.6442226929734918e-04 -1.3421151206610122e-02  9.8416015693162630e-09 -1.1685354777938096e-08 1.4455519731735674e-07  1.7059338649387622e-08 -5.2563174365316140e-08 2.2012870223360391e-07  5.9807312783786534e-05 -4.9449157128930764e-04 -1.7750458453218577e-02  1.1633778841856845e-09 -1.1711711140257785e-08 -1.2413232185720811e-07  2.4703806457452118e-09 1.4200926532408140e-08 6.8488837747021454e-08  1.6207243228707686e-06 3.5586504024178298e-05 -1.7188072340859759e-02  -2.3110392018483724e-04 1.1995144510025375e-04 -1.7750202452135135e-02  2.1603522269529591e-09 -4.3054990718775183e-09 6.2727398011600001e-08  -3.1297559399670360e-08 2.5782925332494680e-08 9.5128635546647804e-08  -1.1778223513508477e-06 1.3846930076130144e-05 -1.7939598462931538e-02  -1.2564928554786771e-09 -1.2780385073139961e-09 -3.7680364901612734e-07  -2.0829877032281834e-08 1.2988222292372391e-08 1.0513334083076702e-07  -1.6680018624333249e-08 -1.0008455709878601e-07 -4.0599167931232932e-07  2.0658621941489348e-04 1.5893264172540922e-04 -1.7750419937268