<?xml version="1.0"?>
<VTKFile type="UnstructuredGrid"  version="0.1"  >
<UnstructuredGrid>
<Piece  NumberOfPoints="2696" NumberOfCells="14811">
<Points>
<DataArray  type="Float64"  NumberOfComponents="3"  format="ascii">-0.1979385791209487 0.0033709727463301 0.9295263320918322  -0.197835 -0.00622264 0.274557  -0.197814 -0.00186273 0.196017  -0.197796 -0.0035332 0.7114549999999999  -0.197727 0.00191462 0.50284  -0.197703 -0.008740639999999999 0.8566049999999999  -0.197549 -0.0102037 0.7877110000000001  -0.197548 0.0113468 0.66915  -0.197537 -0.00953508 0.55181  -0.19752 -0.00496649 0.107536  -0.197465 0.0115805 0.748795  -0.197382 0.0167696 0.4544  -0.197295 0.0146056 0.314852  -0.197197 -0.009419250000000001 0.389793  -0.197178 -0.018171 0.429727  -0.197178 -0.0107776 0.348287  -0.197118 -0.0194841 0.895669  -0.197001 -0.017375 0.597677  -0.196956 0.0143744 0.821971  -0.196928 0.0205063 0.235106  -0.196802 -0.0193726 0.151544  -0.196444 0.0259048 0.892297  -0.19639 0.0206834 0.626655  -0.1963873158294226 -0.0205981463462331 0.0703801197932763  -0.196247 0.0254349 0.162507  -0.196151 -0.0250107 0.642054  -0.196018 -0.0270119 0.234649  -0.196012 0.0264592 0.581747  -0.195863 0.0291511 0.124242  -0.195572 -0.0295152 0.47423  -0.195487 0.029498 0.362014  -0.1954815850342504 0.0280030082616107 0.070443436824384  -0.195225 0.0313983 0.535552  -0.194931 -0.0332268 0.31197  -0.194706 -0.035849 0.687234  -0.19458 0.0348951 0.408708  -0.193966 -0.0385128 0.739262  -0.193954 0.0389074 0.783938  -0.193947 0.0397657 0.276222  -0.193801 0.0388097 0.703691  -0.193375 -0.0411793 0.521222  -0.192907 0.0443264 0.854917  -0.192883 -0.0423873 0.828442  -0.1928201337669533 -0.0453765658264667 0.9294277046715519  -0.19271 0.0449239 0.48896  -0.192223 -0.0462584 0.192819  -0.192021 0.0477785 0.197104  -0.191947 -0.0467137 0.111653  -0.191548 -0.049242 0.780972  -0.1912088311241861 0.0513301980589333 0.9296259083152576  -0.190726 -0.0523076 0.568147  -0.190693 -0.0525744 0.273948  -0.190651 -0.0511343 0.357124  -0.18966 -0.0556819 0.399121  -0.189534 0.0565247 0.320671  -0.189194 0.0583603 0.657717  -0.189077 0.0586335 0.7427859999999999  -0.189019 -0.0586833 0.878915  -0.187955 -0.0616867 0.61414  -0.187839 0.0626466 0.446518  -0.187834 -0.0624619 0.445112  -0.18783 0.0610886 0.10619  -0.187074 0.0634459 0.611753  -0.186538 -0.0656929 0.15269  -0.186522 0.0664604 0.237395  -0.1862941105868434 -0.0659446445189459 0.0703431987188784  -0.186217 0.0667982 0.564738  -0.186205 0.0652911 0.818258  -0.185825 -0.0682844 0.658985  -0.185052 0.0694689 0.365511  -0.184862 0.07090920000000001 0.152427  -0.184377 0.0722772 0.892311  -0.184342 0.07162060000000001 0.523261  -0.184174 -0.07112209999999999 0.233889  -0.18392 -0.0728483 0.491336  -0.183646 -0.0737172 0.709131  -0.182635051662962 0.075543994090529 0.0705295991617385  -0.182577 -0.0754157 0.320045  -0.180979 0.0800478 0.7007679999999999  -0.18001 0.0820521 0.279576  -0.179509 -0.0825477 0.801126  -0.179364 -0.083429 0.537493  -0.179347 0.0832822 0.406392  -0.178907 0.08457430000000001 0.778914  -0.1783553993070672 -0.085915478612291 0.9293478922383408  -0.178195 -0.08572100000000001 0.756186  -0.177579 -0.087004 0.845381  -0.176608 -0.0893472 0.194167  -0.176575 0.08925900000000001 0.485775  -0.176446 -0.0890339 0.112595  -0.176379 0.0900194 0.194859  -0.1756 0.0910979 0.8542  -0.174662 -0.09314210000000001 0.278902  -0.174278 -0.0935908 0.584152  -0.174203 -0.0933075 0.365173  -0.174164 -0.09382989999999999 0.415226  -0.1728578929710871 0.0963412128064321 0.9297219652638795  -0.172797 0.0960951 0.323087  -0.171322 0.09842430000000001 0.113089  -0.170734 0.100453 0.663209  -0.170582 0.100165 0.58258  -0.169409 0.102154 0.73803  -0.169038 0.102629 0.6251100000000001  -0.169011 -0.103019 0.461309  -0.16868 -0.103463 0.630672  -0.168673 -0.103295 0.888113  -0.167988 -0.104648 0.6754790000000001  -0.167487 0.105466 0.446821  -0.1665932206929432 -0.1066082641898177 0.0703316623379414  -0.1665542269907589 -0.0164565448383893 0.07044578692777489  -0.166345 0.10713 0.237415  -0.166217 -0.107161 0.154277  -0.165419 0.107957 0.533266  -0.164811 0.109199 0.365997  -0.164777 0.109206 0.8154169999999999  -0.164188 -0.110313 0.238368  -0.162943 -0.112058 0.723619  -0.162557 -0.112782 0.506751  -0.162187 0.113412 0.15494  -0.16191 -0.113549 0.321307  -0.161444 0.115003 0.891108  -0.1604420661658044 0.0146273806673605 0.9295574688429359  -0.1602598123396178 0.1160437417507107 0.07062615473235211  -0.160168 -0.116002 0.810227  -0.157829 0.119276 0.280636  -0.1567320568516814 -0.0231895056523025 0.9294809002616296  -0.156702 0.121036 0.696769  -0.156144 -0.121318 0.552073  -0.15412 0.124011 0.407379  -0.154078 -0.124052 0.393249  -0.153624 0.124647 0.775531  -0.1535340523934404 -0.1249814957951267 0.9292733323963596  -0.152801 0.125612 0.491484  -0.152424 -0.125655 0.767989  -0.15228 -0.126676 0.199508  -0.1519092810261558 0.0297418710723635 0.0705338935993978  -0.151447 -0.127174 0.8512690000000001  -0.151237 -0.127409 0.113987  -0.150989 0.128177 0.196602  -0.1509375892736138 -0.0687187491227195 0.9293890034072281  -0.149257 -0.129933 0.5995  -0.148955 -0.130158 0.279123  -0.148306 0.130775 0.567005  -0.148011 -0.130967 0.434067  -0.147649 0.131776 0.8514969999999999  -0.147611 0.131561 0.324852  -0.145153 0.134184 0.113633  -0.144893 -0.134509 0.356616  -0.144625 -0.135033 0.6898339999999999  -0.1445360162843305 0.1355558459026237 0.929808318986533  -0.1439675771195814 -0.0578866854091632 0.0704391260622261  -0.143829 0.135921 0.608905  -0.141204 0.138569 0.73467  -0.140855 0.139042 0.65255  -0.1404540138128386 0.08533074795526741 0.9297064444991761  -0.140318 -0.139466 0.478278  -0.139323 0.140494 0.449838  -0.139283 -0.140526 0.646515  -0.138847 -0.140937 0.161768  -0.138519106987936 -0.1411639404625633 0.0703448129773427  -0.137072 -0.142684 0.889615  -0.137046 0.142736 0.239426  -0.135607 0.143896 0.368263  -0.134005 -0.145792 0.238958  -0.1339720226795165 0.07224646464135979 0.07062399611493619  -0.1335745826921163 0.0415371776853675 0.9296183332850809  -0.133518 0.145631 0.530423  -0.133376 0.146124 0.811813  -0.132374 -0.146909 0.731178  -0.131907 -0.14741 0.808707  -0.131378 -0.147778 0.520023  -0.130632 -0.148372 0.316861  -0.13055 0.148671 0.155848  -0.1291236351064474 0.149981852441302 0.0707321551135347  -0.128863 0.150088 0.282771  -0.128839 0.150425 0.8893180000000001  -0.1267 -0.151848 0.565478  -0.1252854735040017 -0.0120546987785584 0.0705349465728944  -0.125145 0.15343 0.692365  -0.1227563079525674 8.806581514139999e-05 0.9295358702659383  -0.121745 -0.156092 0.400657  -0.121292 0.156359 0.409972  -0.119895 0.157187 0.77139  -0.119781 0.157463 0.491713  -0.1194179600600905 -0.1579446220516861 0.9292132682112676  -0.119175 -0.157758 0.132585  -0.118998055642983 -0.0953143062060107 0.07044235512741991  -0.118602 -0.15823 0.0971812  -0.118513 0.158562 0.198711  -0.117743 -0.159047 0.199249  -0.117435 0.159173 0.57506  -0.116997 -0.159334 0.447823  -0.116428 -0.159921 0.610905  -0.116343 -0.160107 0.848966  -0.1154976985546171 -0.0431281315310715 0.92944902229663  -0.115057 0.160759 0.328625  -0.114545 -0.160994 0.7693719999999999  -0.11357 -0.162151 0.688621  -0.113561 -0.161924 0.277232  -0.112557663801153 0.1094814443801144 0.07071447532788321  -0.11107 -0.163627 0.356871  -0.110864 0.163785 0.114014  -0.110545 0.164207 0.848884  -0.109823 0.164698 0.620289  -0.1086862208438791 -0.08972131216765521 0.9293551685837587  -0.1079732385850296 0.1655127422880804 0.9298775137504505  -0.107589 0.166136 0.728747  -0.1075272980624538 0.0311689630862973 0.07062559600125989  -0.103962 0.168363 0.452237  -0.1032954479124515 0.1164500360075688 0.9297781462474115  -0.100588 -0.170207 0.487655  -0.100376 0.170678 0.663852  -0.1000803470769461 -0.0509416938946247 0.07053680669504871  -0.09955749999999999 0.170964 0.24292  -0.09907050000000001 0.171199 0.369174  -0.0986185 -0.171738 0.889131  -0.09796539999999999 -0.171915 0.649235  -0.09740699999999999 -0.17233 0.161767  -0.097251339426365 0.0707700227100411 0.9296859949020695  -0.0969980047663789 -0.1722367517107466 0.0703896068722651  -0.0964192 0.172853 0.289411  -0.09624489999999999 -0.172797 0.53431  -0.09573902337273139 -0.1350153336170769 0.9292652994320775  -0.0953927 -0.173393 0.23818  -0.09533560000000001 0.172912 0.535989  -0.0944503 0.173781 0.806945  -0.0937847 -0.174175 0.808592  -0.09374059999999999 -0.174154 0.7292689999999999  -0.0925609 -0.174369 0.315747  -0.09220040684773249 0.1382004359802618 0.0707920402755539  -0.09151529999999999 -0.175335 0.5756520000000001  -0.0911936527373562 0.1754460919725641 0.0708411967629735  -0.09107 0.175596 0.155475  -0.0904421499997534 -0.1282641830470459 0.0704585130530814  -0.08933498809653991 0.0270766608672483 0.9295983128945873  -0.08894299788880949 0.071498729144695 0.07071425787430551  -0.0886301 0.177038 0.88652  -0.0871377 -0.17784 0.429652  -0.08344500000000001 0.179543 0.413301  -0.08315400000000001 0.179541 0.19843  -0.0830471 0.179519 0.496354  -0.0816740624328738 -0.0079541711151824 0.0706284701629597  -0.0816156 -0.1803 0.388552  -0.08159420000000001 0.18014 0.761417  -0.0813456 -0.179981 0.114798  -0.080956520777233 -0.0163951742212607 0.929511184027064  -0.0802515 0.180554 0.580158  -0.07814494384415779 -0.1818584686015525 0.9291732655809544  -0.0770161 0.182266 0.7076519999999999  -0.07589079999999999 -0.182673 0.198794  -0.07441399999999999 -0.183474 0.849063  -0.0743859006847417 -0.0870211145563831 0.0705432096461989  -0.0742638 0.183324 0.326269  -0.0733857 -0.183699 0.610829  -0.0730639 -0.183897 0.688674  -0.0729175592668386 -0.0608321012656781 0.9294220072461233  -0.0718623 -0.184119 0.767717  -0.0712889 -0.184493 0.277417  -0.0708470790097338 0.1089174013425698 0.07079824786338459  -0.07060180000000001 0.184722 0.11053  -0.0693175 -0.184934 0.351394  -0.0692815 0.185262 0.625691  -0.067479488723668 0.1424851459384916 0.9298391558448666  -0.06657398812954721 0.1863501123291
[...]
<PointData  Vectors="wss"> 
<DataArray  type="Float64"  Name="wss"  NumberOfComponents="3" format="ascii">5.1904128211952175e-06 2.1521862149479127e-07 -6.9795266492144156e-06  -1.4408804483869532e-07 2.8439814741650702e-08 -1.3910031682270230e-05  -7.4427015237600904e-08 8.9829448288750197e-08 -1.6713068381809893e-05  -2.1734285820624736e-07 -5.8135518549444773e-09 -1.5739735944377064e-05  2.1950936903543129e-08 6.7886220176677236e-08 -1.5227173040211022e-05  9.2029426920365210e-07 3.6794435983066883e-08 -1.1793912912772418e-05  -2.7950579480278943e-07 -2.1166782772528924e-07 -1.4482903348723693e-05  2.0599185118448489e-07 1.2986038307228911e-07 -1.7380295152539819e-05  1.3386324987137367e-08 2.9699854134822278e-08 -1.5713278715164558e-05  4.9272256483065472e-08 -1.7377713810335335e-07 -1.9968406042754493e-05  1.6463992749205488e-07 1.5367884637796376e-07 -1.2292839257743984e-05  1.2117364931143961e-07 2.6317482604926081e-08 -1.4236728863776690e-05  6.3988001096409774e-08 1.1219415041475673e-07 -1.5896765152986128e-05  -1.6218269383452947e-08 4.7400376855532607e-07 -1.3825913416919555e-05  2.4425732439879240e-07 -6.3978799631671572e-09 -1.6345382986055230e-05  -1.2580834737443247e-07 3.4146070870890089e-08 -1.4199552588695580e-05  -1.5122662185185984e-06 -7.5854177581685986e-08 -1.3451749601439897e-05  -1.3554891663916628e-07 6.5951219698990282e-08 -1.6567097900740526e-05  -2.5320596726659961e-07 -3.3164661935754540e-08 -1.4728243982910042e-05  5.4730556953750694e-08 -2.3503669477889385e-08 -1.3146874784567845e-05  1.5843242240399259e-08 -1.2969005387034308e-07 -1.2959990046047795e-05  -1.2315182209427062e-06 1.5117903478155282e-07 -1.6925111000396901e-05  5.4792793603170206e-08 -5.2461572552151522e-08 -1.4548896957068868e-05  4.0804546251546737e-08 -1.4478537346054916e-07 1.5011094532840387e-06  2.0628627205632396e-07 1.7046831796097352e-07 -1.6059430167775468e-05  4.7313729966255891e-08 -2.1231025356831934e-07 -1.7188521109902600e-05  -5.3425843291237056e-08 1.3514181754861488e-07 -1.7305029788605513e-05  -1.5848163217118924e-07 2.5528171712065368e-08 -1.4374695026586722e-05  -2.9703317176964698e-07 -1.7838826270464372e-08 -1.9518557129386243e-05  -1.2651382012607217e-07 -1.5540826911593616e-07 -1.6663050522268467e-05  -2.4135947001442309e-07 -3.3911901447924479e-07 -2.1689038679004778e-05  5.4933257906227375e-07 7.0277136426321825e-08 -4.9836500683896580e-06  1.6592156448015162e-08 1.8758377716791256e-07 -1.3000940480884813e-05  6.0239645299274774e-10 -7.9324437838093758e-08 -1.4879075066615358e-05  1.0157807004539934e-07 2.4143437067885777e-08 -1.5444479343604258e-05  5.2169145587401016e-08 -7.5093361084762146e-08 -1.3083902384081294e-05  -4.7078452145460635e-08 1.7299386386513332e-08 -1.5214539092145462e-05  -2.7292063880274580e-07 1.5867756057378748e-07 -1.5215473517204275e-05  1.8653426839581729e-08 1.9964047815969477e-07 -1.4155520220156408e-05  -6.5799183316586711e-08 -1.0244809368302590e-07 -1.4170320362854973e-05  1.6954136424233111e-08 9.7145851171020734e-08 -1.4042692635669938e-05  4.8144478414439994e-07 -6.0165131867893458e-08 -1.4376502401646035e-05  -1.3978777718707979e-07 -5.2221980734897362e-08 -1.4347340709773588e-05  4.4360767046451240e-06 6.4535723858289418e-07 -6.4949629057519053e-06  -1.5544470924624415e-07 -1.0384413522024324e-07 -1.6115180493688830e-05  -1.5474798781399219e-08 9.5064729265615431e-08 -1.3787824645987102e-05  7.4001212382538896e-09 9.3989380796131916e-08 -1.4987270116433255e-05  9.3064881877137119e-08 -2.6205041912934090e-07 -2.2774365089538905e-05  9.4545529396100456e-08 2.0531628186475166e-07 -1.6916545329820358e-05  3.8968392726378157e-06 -1.3577880911384749e-06 -5.8526806469676913e-06  4.1868962703781760e-08 1.0438836643296530e-08 -1.6640516476641284e-05  -1.8555560349306047e-08 -3.9504706394010777e-08 -1.2154633247633427e-05  -1.6955955667887581e-07 -5.3112764283001408e-08 -1.1893283100627204e-05  2.9619065990715409e-07 -8.5335204839695076e-08 -1.4593434624570502e-05  -2.0480465122135247e-08 -7.0347332530822685e-09 -1.2141916735574438e-05  7.3076810333459757e-08 -1.8371724513772048e-07 -1.2323141876887026e-05  1.5590957395701583e-09 -1.0838004510614276e-07 -1.5176125490689831e-05  -9.8485410674653275e-07 -1.9302982606322127e-07 -1.5804900487541470e-05  -1.6112080715426432e-08 1.3872870442597095e-07 -1.7773093074994883e-05  2.0981293032574034e-08 1.7578611493317643e-08 -1.3179764790921174e-05  -4.7401902752843749e-08 -1.3392364989333587e-07 -1.8311605304649504e-05  1.2947519718255962e-07 -1.4753894325446507e-07 -2.1838693417026354e-05  -3.9645492468735797e-08 1.6115353386787222e-07 -1.6001799578829171e-05  4.8718488482802464e-08 -5.7544219007677251e-08 -1.1111697904777659e-05  -3.7419293036427317e-08 -1.6581497761741290e-08 -1.5558668371451811e-05  4.1409747131725846e-08 -1.8367957067038308e-07 -6.3518190264479357e-06  1.0820424300476350e-07 8.4023112660566830e-08 -1.5761039832832732e-05  3.4639608139340704e-08 1.6631183663421886e-07 -1.5340502908141084e-05  7.9626775254945396e-08 1.3204788599689867e-07 -1.2726145383909101e-05  -1.9973794697076421e-07 -4.4206325562116714e-07 -1.3039701981700645e-05  1.4932783826784356e-07 -9.6135988949528090e-09 -1.2515684777094139e-05  -9.4964600810621265e-07 4.1948019788824483e-07 -1.7173562905676156e-05  -5.9435699732215292e-08 5.5737847677147222e-09 -1.5475773932229548e-05  -4.2543944104019480e-09 2.5293496194888111e-07 -1.4332127517138527e-05  -8.3225216887104020e-08 1.4153332546134819e-08 -1.3960750512842200e-05  -2.2093502187014989e-07 -7.4430675677370394e-08 -1.3008907654782373e-05  1.0274649135512414e-07 2.1915105519192347e-08 -1.3609180299438059e-06  1.0216601735312797e-08 -2.1862827692905738e-07 -1.3643722406491360e-05  -1.2755198799000232e-07 1.3578149241378660e-08 -1.4697188460423926e-05  1.3395132930928243e-08 -9.1921135081828590e-08 -1.3820948200110331e-05  -4.5370265753511997e-08 1.9056896149369988e-07 -1.5111084791955229e-05  7.7112299873337379e-08 -7.4719409812183097e-08 -1.5192560203957341e-05  2.4294529381512499e-08 -1.2543771576512498e-07 -1.7490285660760915e-05  -1.2994244549549380e-07 -8.2668587187032360e-08 -1.5676143967315120e-05  4.3450310987741380e-06 2.1188287080840158e-06 -1.3222380912182345e-05  -1.8735836586102752e-07 -7.4625172116076135e-08 -1.4520492296649980e-05  3.9758749406865685e-07 2.8862745069437572e-07 -1.5635541402399466e-05  -5.3834496573100325e-08 -9.5096684973724988e-08 -9.9731137289251854e-06  6.8255743112592443e-09 -3.0573075628073322e-08 -1.5329900883008727e-05  5.0185012152864598e-08 -6.7502187795135591e-08 -1.9694157593087812e-05  2.7076769402754926e-08 -2.1064405047482261e-08 -1.3365517326600725e-05  4.7834836200045425e-07 -1.7369720020957089e-07 -1.3481523919600304e-05  -7.0521990914928848e-09 1.0509814788029049e-07 -1.4479787168909219e-05  -3.2581583418633391e-08 -1.2412719115983434e-08 -1.6590411981437015e-05  6.3813632803572117e-08 2.9240253802572084e-07 -1.3808852823764144e-05  -4.0981544269054612e-08 -1.1117927187924353e-08 -1.5731368488527041e-05  3.1803574320054369e-06 -1.8136578110548501e-06 -1.0450610970298554e-05  -9.3072707717950101e-08 9.0257352614342599e-09 -1.3094437844544211e-05  1.8638264029018762e-08 2.5911205868285244e-07 -1.6403607760291633e-05  4.4655504664665907e-07 1.9921953754136067e-07 -1.3621248549578226e-05  -7.6773645502785462e-08 -6.6853514364324589e-08 -1.1575539856204692e-05  1.0720474136723592e-07 -1.0429907008429366e-08 -1.6044155292251559e-05  7.6451473429134244e-09 9.2623535381061214e-08 -1.4307467442071230e-05  1.6581156101464771e-08 3.2074761411501484e-08 -1.4453373735057041e-05  -1.3074859284212985e-07 -4.1638769403538655e-08 -1.3882238093218047e-05  -9.8900078620677564e-07 -6.1268866044021649e-07 -1.8769666944147387e-05  1.9352974684204325e-07 -6.6296728835762586e-08 -1.6250127220193336e-05  1.1091587187574631e-07 1.0890356475044234e-07 -1.6730148439566544e-05  3.2211050471976502e-07 -2.4031192275445007e-07 -6.4037375017305309e-06  1.5799074468133664e-06 -8.4366824446385927e-08 1.2321155343669483e-06  -9.2132861014038189e-08 -4.4013495286434879e-08 -1.4300880806018976e-05  -3.6987561507797783e-08 3.9171985436711950e-07 -1.3646524870596478e-05  -5.2340312317271110e-08 -2.9111961095479890e-08 -1.4025450767560987e-05  6.9926440055603777e-08 6.2797456370204686e-08 -1.3161302677842720e-05  -1.7705314940080416e-07 8.1077316283077207e-08 -1.6805168698011177e-05  1.5045438173684085e-07 -3.0920874816015822e-07 -1.8220557369401275e-05  -7.6908011636304891e-08 -1.0453268584782546e-07 -1.5872613812659137e-05  2.3741744064527855e-09 -1.7915861885374977e-08 -1.6090208430266942e-05  3.7830852002388920e-08 -1.3923817800734354e-07 -1.4646917062418624e-05  -1.8133417240179991e-07 -5.1774748419803244e-08 -1.2832230036191401e-05  -7.3347402291467525e-07 8.1174402548956146e-07 -1.8017293671288111e-05  -1.1474042269164254e-06 -1.3087229149338897e-07 2.5074991185837498e-06  -3.3470392781306189e-08 -1.9685330754868751e-07 -3.6970534142450770e-06  -3.0206245044739689e-09 -1.5331567060363646e-07 -1.5507918109180372e-05  -3.6654509706918417e-08 -8.2581820111333759e-08 -1.6037635979612746e-05  -8.8216106291037904e-07 1.3811174594520535e-07 1.5939340088517109e-06  1.5507685196002791e-07 3.5375421792601088e-07 -1.6038408421331350e-05  -1.0696887789662154e-07 2.3673648328089139e-07 -1.4760959163892306e-05  -5.1605531525690771e-09 -9.2825965038777902e-08 -1.4108465210108061e-05  1.7425835910673865e-07 -1.0037094007497652e-07 -1.8441323856719090e-05  -9.3969704142847559e-09 3.2754802681012168e-08 -1.6078112774575564e-05  3.2132075631938969e-06 2.5347612824218315e-06 -6.1801250465458923e-06  2.3556104919938250e-08 1.2846531986443296e-07 -1.4120558185747239e-05  -8.8991280509310260e-08 2.4303310714279585e-07 -1.7541003419015749e-05  1.5795041420508502e-07 -2.2238147413958151e-07 -1.2499000187354279e-05  2.0044828705350509e-07 -2.2421378540248958e-07 9.2949980551088272e-07  2.9242038304061278e-07 -2.5259231649622210e-08 -1.6939843509022631e-05  -1.2685146973199477e-07 2.4745810816400511e-08 -1.9381747095666706e-05  1.2231966072662029e-07 1.1540559391159446e-07 -1.6699421861677048e-05  -1.0222801177534268e-06 -3.0031135603731738e-07 3.7269059066071658e-06  -1.7656922795704272e-08 -5.0073902372103523e-08 -1.4514226238353676e-05  9.6509464146845916e-08 -2.6061287234965864e-09 -1.3561101546700991e-05  1.3091865206904218e-07 -1.7245716941869550e-07 -1.8105512530720898e-05  1.7536723953582670e-09 8.7593593472387048e-08 -1.3743367275984436e-05  4.3534164290839753e-07 -2.3564398622151126e-07 -1.5968365443535764e-05  -1.1411390896399484e-07 -8.4498003458019491e-08 -1.5674925899619161e-05  -6.6876754231596733e-08 -3.6959865711439842e-08 -2.1788369743928148e-05  2.0857727008293472e-07 -1.3263176914814861e-07 -1.5129409978561107e-05  1.9866463868854800e-07 -1.2425056174706251e-07 -1.3559178589279448e-05  3.3771056763329793e-06 -2.7293324677091072e-06 -6.6644068545498614e-06  -3.4962280397502188e-08 1.4707771534521513e-08 1.8841007976052223e-06  -3.2069003490242876e-07 -1.8940052107770066e-07 -1.9567050910844416e-05  -1.5862387114278904e-07 -9.8207711267171475e-08 -1.5150127788997875e-05  1.0031855678894489e-07 8.6501131960841743e-09 -1.5610264489388410e-05  3.6491963483732638e-07 -4.8437524210436912e-08 3.4196504771470295e-06  -1.2489029575495066e-07 -2.6973121400322152e-08 -1.6299043894454753e-05  -6.3202244728861327e-08 1.9743414196564259e-08 -1.8393123631060320e-05  5.8140349134742757e-08 6.1068035385245531e-09 -1.7402997768912343e-05  -1.9786844434146049e-08 1.8457762929917194e-07 -1.6641968204277455e-05  -1.3139677523137928e-07 4.9965627969151311e-07 -4.1605931499895624e-06  -7.3840447515024313e-07 -6.9663481978742832e-07 -1.7942912052354636e-05  1.3891243938721185e-07 9.4685462924612085e-08 -1.4983330627299195e-05  -9.3411402202644299e-08 -2.8626198012811146e-08 -1.4029977438460727e-05  1.6015461337531232e-07 -2.3433074774698726e-07 -1.3994541038988817e-05  4.2355522770730148e-07 3.9108329030723232e-08 4.9876549888117789e-07  -6.7053775937261206e-07 2.0222524605541784e-07 3.1430131683188483e-07  -8.5904045481984885e-08 -9.0262515372112142e-08 -1.5108770212547260e-05  -8.7756038822101830e-08 -2.0437267283861667e-08 -1.7803165405967903e-05  5.5995200830366334e-08 -2.0633699501013857e-07 -1.0975142170573749e-05  -6.0106942982343785e-08 4.4506357972288533e-08 -1.3941052083970110e-05  3.6608013905081306e-08 7.3901067231303799e-08 -1.6510095288741178e-05  -1.0285011724917312e-08 2.0274984033100052e-09 -1.1830784640416260e-05  1.0159819789405591e-07 -5.0089539252460045e-09 -1.5717951800161224e-05  -2.3269414874518291e-07 -4.9518624647869515e-08 -7.9134935510280467e-06  6.5325809504748039e-08 5.8678740403759277e-09 -1.3096104416941098e-05  -7.0040617050743408e-07 9.0214875451385576e-07 -1.5772852414762515e-05  2.0984524311479188e-07 -1.7202461028945897e-07 -1.4608416038905734e-05  -1.2473769352674834e-07 2.9144208000272258e-08 -6.0598883732008777e-07  -1.1005235381396558e-07 -8.4870225483872124e-08 -1.4364198580461292e-05  4.2772812994460963e-07 -2.1026492865034241e-08 -5.7679885653046615e-07  7.2061024375461654e-08 -1.2164055583340908e-07 -1.4679749418014688e-05  3.8289243167959448e-07 6.1211398368215922e-08 -1.6520150789914495e-05  -1.4680200016145800e-07 1.4179709984434880e-07 -1.6812880775159191e-05  -3.2817702579920565e-08 5.1747918892492340e-08 -1.1634247431897492e-05  2.6164341894838831e-06 4.1130808105454063e-06 -1.2263949921039195e-05  -5.3997186826183261e-08 4.0137991007239369e-07 -1.0267714014278490e-05  -2.3582355832355993e-07 1.9530942884159234e-08 1.5423581652048566e-06  -2.5197924305064173e-07 -2.3674044794637815e-07 -1.4805845119591335e-05  7.1568673201170498e-09 -1.3560099940955086e-08 -1.4110282051123805e-05  -1.9645459401515356e-07 2.6475344363003934e-07 -1.4270564277416843e-05  -1.4052070694024745e-08 -3.0374103902497638e-08 -1.4115823159919745e-05  -1.7072903696156190e-07 3.7146220340411462e-08 -1.3833891015577282e-05  1.0866636838546187e-08 -1.0210040901337756e-07 -1.4507993020666657e-05  7.2250792637581641e-09 2.9516900045197402e-07 -1.7953704886059443e-05  4.9131688780254807e-07 9.3450877919283929e-08 -9.0288575920579986e-07  -2.2309078251033687e-07 5.9541772098300018e-08 -1.5573665512607843e-05  2.0649572401259591e-07 -9.4866788702187561e-09 -1.2699247838560963e-05  -2.6090642980335468e-07 2.7294055882380711e-07 -1.8696948654301027e-05  -1.5699142543487096e-07 5.6280237103009653e-08 -1.2397480266074633e-05  -1.6242963792222879e-07 -7.0548335454413815e-08 1.8596060525953760e-06  2.2190334396080186e-07 -3.8052055194703470e-08 -1.5509979594546346e-05  -3.4595207262628471e-08 1.4849609092790269e-07 -1.7179901962807315e-05  2.9055345659865261e-07 -3.6445279772128735e-07 -1.4639996950106507e-05  -1.9291439550428374e-08 3.3147000175062980e-09 -1.4228394745284667e-05  -3.5707000484254491e-07 -3.2529181487792338e-07 1.5895022613593836e-07  2.4180800126862518e-06 -3.6451364738289625e-06 -6.2421150849377603e-06  2.4273364667707583e-07 -9.9553454204626587e-08 -1.6288650522499306e-05  3.5862350903276775e-08 2.9553604796795586e-08 -1.2817356437886794e-07  9.9002118459794663e-08 8.6584200878042281e-08 -1.5168140990479773e-05  -7.0683301439467507e-07 7.3611434546603761e-07 1.5391956880427752e-06  5.5297443076401393e-08 -1.5977500627594304e-07 -1.4631373630011605e-05  1.0912290922227532e-07 2.7688973513645328e-07 -1.6520302349569275e-05  6.3706872905031412e-08 3.5752568464587424e-08 -4.7821663294617351e-07  -5.0445333926199813e-08 -7.2306231987149207e-08 -1.4119685637484335e-05  -4.0587794522780403e-08 -2.6335530607224949e-07 -1.8313300794729232e-05  -6.2545068254290536e-07 -1.0631542165069704e-06 -2.0015540638082172e-05  -1.2163516612763125e-07 1.8505123760760055e-07 -1.5129931988982779e-05  1.6977190158502239e-07 -8.6742207614999210e-08 -1.6887248512698660e-05  1.6546643805438066e-07 -1.4793904161827029e-07 -8.9220147951506239e-07  -5.6305260143659214e-08 1.7098083686963851e-07 -9.1855034908763591e-07  -1.0759590011937001e-07 2.1776680513343594e-08 -1.0279116379804324e-05  1.8292088057388654e-07 -1.4319908525954908e-07 -1.4017635512969267e-05  -5.5707803672410409e-07 -4.4839210199932064e-07 3.8231563739577886e-06  -1.0917998846636717e-07 1.4733328674273002e-07 -1.5248471177022800e-05  -1.1711177549297748e-08 2.0715321365775144e-09 -1.2193545979089650e-05  -1.3366961424559319e-07 -4.3484931651318517e-08 -1.4899029125114346e-05  2.9119286665468394e-09 -5.5070763539988299e-08 -1.4470134758211160e-05  -3.2481396913678137e-07 -3.7006706103231307e-08 -1.8044951598696731e-05  -2.5181000820119113e-08 -3.2418144550294051e-08 -1.4374098549764293e-05  1.7435607624339940e-07 -6.7024665811049260e-07 1.6227190888407676e-06  -1.1450442834518434e-07 2.7937432512957355e-07 -1.4655523805447035e-05  1.1703611497009868e-08 -1.8536949128483281e-08 -2.0100780220988929e-06  1.0366927935182312e-07 4.3721278684831975e-08 -1.3828664862536127e-05  2.3671336049626770e-07 4.2380018060713610e-07 6.9809102164513266e-07  8.1254014364929923e-08 8.4556526993563938e-09 1.4250925669109945e-07  6.9128831762309845e-09 -7.9922750754201617e-08 -2.9730100746681865e-07  -5.8893610097415901e-07 1.1284393217637254e-06 -1.5744449458397763e-05  1.1003543735591001e-07 2.9094796051124286e-08 -1.3274563248145871e-05  -2.0731764977946952e-07 1.9752682671245986e-08 -1.7749022671334542e-05  -1.7956741872497099e-07 -1.5912170345620376e-07 -1.4768853117746721e-05  2.3367826370891956e-08 2.2106033186957753e-07 -1.2364016913577530e-05  4.3867138090490213e-08 -3.8349448989588512e-08 1.9266974470749511e-07  1.0373564623507157e-07 1.7120523414321379e-07 -1.5718347603241602e-05  -1.5003167484176153e-07 9.7764739645607886e-08 -1.3503409922879708e-05  4.0056516505764883e-07 -9.2906841273980806e-08 -2.1469339050936907e-05  -1.1913422024739613e-07 -1.4700324870077038e-08 2.1053251486694302e-07  1.3588131204700326e-09 -1.4657323452493837e-07 -1.6027935810681527e-05  1.8996828671897644e-06 3.9989023940792907e-06 -7.2877290432866445e-06  2.4327919951134950e-07 2.9567646777866374e-08 -1.4610625953895285e-05  -3.1070529586848658e-08 -1.1856053140917968e-07 -1.6243032600147452e-05  2.7239454476856401e-07 3.5695424765719855e-07 -1.2533210520352836e-05  7.9290708892572805e-08 2.4538319461365382e-09 -2.8153149843814938e-07  2.3292605352845630e-07 1.8157710755159900e-07 -1.5409928781971303e-05  6.9946516457231542e-09 -3.4732987962154297e-08 -1.4653018724481755e-05  -2.1232186157334640e-07 -2.2557920395726861e-08 -1.3567155890272737e-05  -2.0024521705208919e-08 1.6754049495218929e-08 2.2847372412187421e-07  7.3407391455599679e-08 7.5134937307283185e-08 -1.4534582573858829e-05  -8.3630534015315037e-08 -9.6383878832006429e-08 -1.4848768432408775e-05  4.9134044040372160e-08 1.1789711300762721e-07 -6.2860639855138237e-07  -7.3616614644580922e-08 -1.2336618435304205e-08 -1.6956110709170437e-05  4.3316848721046896e-09 -6.5100673634284714e-08 -1.4409841258672445e-05  1.4492415452850990e-07 -5.7614062528371108e-08 -1.4895694752205831e-05  -3.1616492969035894e-07 9.9152221424534866e-07 1.9089601639860932e-06  1.6564474574272960e-06 -4.4864548242152850e-06 -6.8140482360840142e-06  2.9167439063721628e-07 -4.2494507380457550e-07 -1.8464643750220511e-05  1.8515784554341951e-07 9.9495576678917790e-07 8.3570918370148988e-07  -7.4774691278302519e-08 -1.1469525421110707e-07 -1.4505724474722475e-05  -1.6582368389247320e-07 -1.4569569152392225e-07 -1.2580649119373007e-05  2.3827218890216100e-07 3.0394471808381515e-07 -9.2769480160580656e-07  1.5023216135414561e-09 6.3177592417948847e-08 2.4691740788971205e-08  -5.3563176040220874e-08 6.2847710012873837e-09 -1.4706087009988235e-05  -4.7005415984024236e-09 -7.6845416685693365e-08 -1.4518606297791558e-05  3.0537654564132889e-07 -3.0677127280963644e-07 -3.5430374371485125e-07  2.2712626255368750e-08 -2.0084140858687068e-07 -1.2596978510570183e-05  1.6670255809035038e-08 -4.3604542735247857e-09 -1.2026210156372119e-05  3.9617316901348851e-07 5.7226461319327878e-08 -1.4404856724491069e-05  2.1358665294526950e-07 -5.4394162710021968e-07